 Entering Link 1 = I:\G16W\l1.exe PID=      4120.
  
 Copyright (c) 1988,1990,1992,1993,1995,1998,2003,2009,2016,
            Gaussian, Inc.  All Rights Reserved.
  
 This is part of the Gaussian(R) 16 program.  It is based on
 the Gaussian(R) 09 system (copyright 2009, Gaussian, Inc.),
 the Gaussian(R) 03 system (copyright 2003, Gaussian, Inc.),
 the Gaussian(R) 98 system (copyright 1998, Gaussian, Inc.),
 the Gaussian(R) 94 system (copyright 1995, Gaussian, Inc.),
 the Gaussian 92(TM) system (copyright 1992, Gaussian, Inc.),
 the Gaussian 90(TM) system (copyright 1990, Gaussian, Inc.),
 the Gaussian 88(TM) system (copyright 1988, Gaussian, Inc.),
 the Gaussian 86(TM) system (copyright 1986, Carnegie Mellon
 University), and the Gaussian 82(TM) system (copyright 1983,
 Carnegie Mellon University). Gaussian is a federally registered
 trademark of Gaussian, Inc.
  
 This software contains proprietary and confidential information,
 including trade secrets, belonging to Gaussian, Inc.
  
 This software is provided under written license and may be
 used, copied, transmitted, or stored only in accord with that
 written license.
  
 The following legend is applicable only to US Government
 contracts under FAR:
  
                    RESTRICTED RIGHTS LEGEND
  
 Use, reproduction and disclosure by the US Government is
 subject to restrictions as set forth in subparagraphs (a)
 and (c) of the Commercial Computer Software - Restricted
 Rights clause in FAR 52.227-19.
  
 Gaussian, Inc.
 340 Quinnipiac St., Bldg. 40, Wallingford CT 06492
  
  
 ---------------------------------------------------------------
 Warning -- This program may not be used in any manner that
 competes with the business of Gaussian, Inc. or will provide
 assistance to any competitor of Gaussian, Inc.  The licensee
 of this program is prohibited from giving any competitor of
 Gaussian, Inc. access to this program.  By using this program,
 the user acknowledges that Gaussian, Inc. is engaged in the
 business of creating and licensing software in the field of
 computational chemistry and represents and warrants to the
 licensee that it is not a competitor of Gaussian, Inc. and that
 it will not use this program in any manner prohibited above.
 ---------------------------------------------------------------
  

 Cite this work as:
 Gaussian 16, Revision A.03,
 M. J. Frisch, G. W. Trucks, H. B. Schlegel, G. E. Scuseria, 
 M. A. Robb, J. R. Cheeseman, G. Scalmani, V. Barone, 
 G. A. Petersson, H. Nakatsuji, X. Li, M. Caricato, A. V. Marenich, 
 J. Bloino, B. G. Janesko, R. Gomperts, B. Mennucci, H. P. Hratchian, 
 J. V. Ortiz, A. F. Izmaylov, J. L. Sonnenberg, D. Williams-Young, 
 F. Ding, F. Lipparini, F. Egidi, J. Goings, B. Peng, A. Petrone, 
 T. Henderson, D. Ranasinghe, V. G. Zakrzewski, J. Gao, N. Rega, 
 G. Zheng, W. Liang, M. Hada, M. Ehara, K. Toyota, R. Fukuda, 
 J. Hasegawa, M. Ishida, T. Nakajima, Y. Honda, O. Kitao, H. Nakai, 
 T. Vreven, K. Throssell, J. A. Montgomery, Jr., J. E. Peralta, 
 F. Ogliaro, M. J. Bearpark, J. J. Heyd, E. N. Brothers, K. N. Kudin, 
 V. N. Staroverov, T. A. Keith, R. Kobayashi, J. Normand, 
 K. Raghavachari, A. P. Rendell, J. C. Burant, S. S. Iyengar, 
 J. Tomasi, M. Cossi, J. M. Millam, M. Klene, C. Adamo, R. Cammi, 
 J. W. Ochterski, R. L. Martin, K. Morokuma, O. Farkas, 
 J. B. Foresman, and D. J. Fox, Gaussian, Inc., Wallingford CT, 2016.
 
 ******************************************
 Gaussian 16:  EM64W-G16RevA.03 17-Dec-2016
                22-Mar-2023 
 ******************************************
 %nprocshared=32
 Will use up to   32 processors via shared memory.
 %mem=600MW
 %chk=C:\Users\Administrator\Desktop\dataset_dft\C12H8O1\C12H8O1.chk
 --------------------------------
 # scan b3lyp/6-31++g(d,p) nosymm
 --------------------------------
 1/38=1,60=1,172=1/1,8;
 2/12=2,15=1,17=6,18=5,29=3,40=1/2;
 3/5=1,6=6,7=1111,11=2,25=1,30=1,74=-5/1,2,3;
 4//1;
 5/5=2,38=5/2;
 6/7=2,8=2,9=2,10=2,18=1,28=1/1;
 1/60=1/8(1);
 99/9=1/99;
 2/15=1,29=3/2;
 3/5=1,6=6,7=1111,11=2,25=1,30=1,74=-5/1,2,3;
 4/5=5,16=3,69=1/1;
 5/5=2,38=5/2;
 1/60=1/8(-4);
 99/9=1/99;
 -------------------
 Title Card Required
 -------------------
 Symbolic Z-matrix:
 Charge =  0 Multiplicity = 1
 C(PDBName=C,ResName=MOL,ResNum=1)
 C(PDBName=C,ResName=MOL,ResNum=1) 1    B1
 C(PDBName=C,ResName=MOL,ResNum=1) 2    B2       1    A1
 C(PDBName=C,ResName=MOL,ResNum=1) 3    B3       2    A2       1    D1       0
 C(PDBName=C,ResName=MOL,ResNum=1) 4    B4       3    A3       2    D2       0
 C(PDBName=C,ResName=MOL,ResNum=1) 1    B5       2    A4       3    D3       0
 H(PDBName=H,ResName=MOL,ResNum=1) 2    B6       1    A5       6    D4       0
 H(PDBName=H,ResName=MOL,ResNum=1) 4    B7       3    A6       2    D5       0
 H(PDBName=H,ResName=MOL,ResNum=1) 5    B8       4    A7       3    D6       0
 H(PDBName=H,ResName=MOL,ResNum=1) 1    B9       6    A8       5    D7       0
 C(PDBName=C,ResName=MOL,ResNum=1) 3    B10      2    A9       1    D8       0
 C(PDBName=C,ResName=MOL,ResNum=1) 11   B11      3    A10      2    D9       0
 C(PDBName=C,ResName=MOL,ResNum=1) 12   B12      11   A11      3    D10      0
 C(PDBName=C,ResName=MOL,ResNum=1) 13   B13      12   A12      11   D11      0
 C(PDBName=C,ResName=MOL,ResNum=1) 14   B14      13   A13      12   D12      0
 C(PDBName=C,ResName=MOL,ResNum=1) 11   B15      3    A14      2    D13      0
 H(PDBName=H,ResName=MOL,ResNum=1) 13   B16      12   A15      11   D14      0
 H(PDBName=H,ResName=MOL,ResNum=1) 16   B17      11   A16      3    D15      0
 H(PDBName=H,ResName=MOL,ResNum=1) 11   B18      3    A17      2    D16      0
 C(PDBName=C,ResName=MOL,ResNum=1) 12   B19      11   A18      3    D17      0
 H(PDBName=H,ResName=MOL,ResNum=1) 20   B20      12   A19      11   D18      0
 H(PDBName=H,ResName=MOL,ResNum=1) 20   B21      12   A20      11   D19      0
 O(PDBName=O,ResName=MOL,ResNum=1) 6    B22      1    A21      2    D20      0
 O(PDBName=O,ResName=MOL,ResNum=1) 14   B23      13   A22      12   D21      0
 H(PDBName=H,ResName=MOL,ResNum=1) 24   B24      14   A23      13   D22      0
 H(PDBName=H,ResName=MOL,ResNum=1) 15   B25      14   A24      13   D23      0
 H(PDBName=H,ResName=MOL,ResNum=1) 23   B26      6    A25      1    D24      0
       Variables:
  B1                    1.3991                   
  B2                    1.40617                  
  B3                    1.40601                  
  B4                    1.39917                  
  B5                    1.39684                  
  B6                    1.08691                  
  B7                    1.08636                  
  B8                    1.08741                  
  B9                    1.08406                  
  B10                   3.13812                  
  B11                   1.40969                  
  B12                   1.40102                  
  B13                   1.39992                  
  B14                   1.39805                  
  B15                   1.39755                  
  B16                   1.08508                  
  B17                   1.08588                  
  B18                   1.08567                  
  B19                   1.     Scan 20    0.1    
  B20                   1.09865                  
  B21                   1.09872                  
  B22                   1.4003                   
  B23                   1.40011                  
  B24                   0.97611                  
  B25                   1.08702                  
  B26                   0.97613                  
  A1                  121.47938                  
  A2                  118.04146                  
  A3                  121.1635                   
  A4                  119.34702                  
  A5                  119.0811                   
  A6                  119.62235                  
  A7                  120.02618                  
  A8                  119.17747                  
  A9                  117.5415                   
  A10                  53.64283                  
  A11                 119.01649                  
  A12                 120.26837                  
  A13                 120.91622                  
  A14                 157.51973                  
  A15                 121.10875                  
  A16                 119.92171                  
  A17                  70.28418                  
  A18                 120.72174                  
  A19                 108.53142                  
  A20                 109.08877                  
  A21                 116.90737                  
  A22                 116.36394                  
  A23                 112.47762                  
  A24                 120.69406                  
  A25                 112.48657                  
  D1                   -0.08337                  
  D2                    0.14483                  
  D3                   -0.0254                   
  D4                  179.91815                  
  D5                 -179.38215                  
  D6                  179.97536                  
  D7                 -179.8701                   
  D8                 -119.04817                  
  D9                 -138.84342                  
  D10                -153.77296                  
  D11                  -0.10675                  
  D12                  -0.03737                  
  D13                 139.28985                  
  D14                -179.92488                  
  D15                -112.74525                  
  D16                  17.70911                  
  D17                  27.18218                  
  D18                -179.56815                  
  D19                  65.33562                  
  D20                 179.95709                  
  D21                 179.86887                  
  D22                 179.56842                  
  D23                -179.99803                  
  D24                 179.99369                  
 
 Center=      2.06750996     -1.00113336      2.88737706
 Residue   1 PDB Number     1_0 MOL charge    0.00000000 layers R        AvRTP=      0.00000000     90.00000000    153.43494882
 Scan the potential surface.
 Variable   Value     No. Steps Step-Size
 -------- ----------- --------- ---------
    19       1.000000      20      0.1000
 A total of     21 points will be computed.
 ---------------------------------------------------------------------------------------------------
                            Z-MATRIX (ANGSTROMS AND DEGREES)
   CD    Cent   Atom    N1       Length/X        N2       Alpha/Y        N3        Beta/Z          J
 ---------------------------------------------------------------------------------------------------
      1      1  C 
      2      2  C        1   1.399098(     1)
      3      3  C        2   1.406173(     2)      1  121.479(    27)
      4      4  C        3   1.406008(     3)      2  118.041(    28)      1   -0.083(    52)      0
      5      5  C        4   1.399168(     4)      3  121.164(    29)      2    0.145(    53)      0
      6      6  C        1   1.396843(     5)      2  119.347(    30)      3   -0.025(    54)      0
      7      7  H        2   1.086914(     6)      1  119.081(    31)      6  179.918(    55)      0
      8      8  H        4   1.086361(     7)      3  119.622(    32)      2 -179.382(    56)      0
      9      9  H        5   1.087410(     8)      4  120.026(    33)      3  179.975(    57)      0
     10     10  H        1   1.084061(     9)      6  119.177(    34)      5 -179.870(    58)      0
     11     11  C        3   3.138118(    10)      2  117.542(    35)      1 -119.048(    59)      0
     12     12  C       11   1.409688(    11)      3   53.643(    36)      2 -138.843(    60)      0
     13     13  C       12   1.401019(    12)     11  119.016(    37)      3 -153.773(    61)      0
     14     14  C       13   1.399916(    13)     12  120.268(    38)     11   -0.107(    62)      0
     15     15  C       14   1.398054(    14)     13  120.916(    39)     12   -0.037(    63)      0
     16     16  C       11   1.397546(    15)      3  157.520(    40)      2  139.290(    64)      0
     17     17  H       13   1.085080(    16)     12  121.109(    41)     11 -179.925(    65)      0
     18     18  H       16   1.085877(    17)     11  119.922(    42)      3 -112.745(    66)      0
     19     19  H       11   1.085672(    18)      3   70.284(    43)      2   17.709(    67)      0
     20     20  C       12   1.000000(    19)     11  120.722(    44)      3   27.182(    68)      0
     21     21  H       20   1.098651(    20)     12  108.531(    45)     11 -179.568(    69)      0
     22     22  H       20   1.098722(    21)     12  109.089(    46)     11   65.336(    70)      0
     23     23  O        6   1.400304(    22)      1  116.907(    47)      2  179.957(    71)      0
     24     24  O       14   1.400109(    23)     13  116.364(    48)     12  179.869(    72)      0
     25     25  H       24   0.976108(    24)     14  112.478(    49)     13  179.568(    73)      0
     26     26  H       15   1.087017(    25)     14  120.694(    50)     13 -179.998(    74)      0
     27     27  H       23   0.976135(    26)      6  112.487(    51)      1  179.994(    75)      0
 ---------------------------------------------------------------------------------------------------
                         Z-Matrix orientation:                         
 ---------------------------------------------------------------------
 Center     Atomic      Atomic             Coordinates (Angstroms)
 Number     Number       Type             X           Y           Z
 ---------------------------------------------------------------------
      1          6           0        0.000000    0.000000    0.000000
      2          6           0        0.000000    0.000000    1.399098
      3          6           0        1.199224    0.000000    2.133390
      4          6           0        2.410940   -0.001806    1.420228
      5          6           0        2.427655   -0.000528    0.021161
      6          6           0        1.217582    0.000540   -0.684590
      7          1           0       -0.949889    0.000936    1.927389
      8          1           0        3.352681   -0.012033    1.961707
      9          1           0        3.375563   -0.001559   -0.511690
     10          1           0       -0.924555   -0.001299   -0.566025
     11          6           0        1.731215   -2.432489    4.043302
     12          6           0        1.995036   -1.076421    4.323831
     13          6           0        3.002294   -0.756175    5.243466
     14          6           0        3.731504   -1.771661    5.873392
     15          6           0        3.471332   -3.117932    5.600594
     16          6           0        2.463032   -3.438959    4.679380
     17          1           0        3.232871    0.276124    5.485521
     18          1           0        2.253435   -4.481720    4.460640
     19          1           0        0.960687   -2.693091    3.324235
     20          6           0        1.463607   -0.351351    3.885817
     21          1           0        1.838947    0.618828    4.239237
     22          1           0        0.420628   -0.415077    4.225409
     23          8           0        1.157976   -0.000422   -2.083624
     24          8           0        4.720198   -1.359516    6.775016
     25          1           0        5.187865   -2.111577    7.185477
     26          1           0        4.039758   -3.903539    6.091838
     27          1           0        2.043185    0.000126   -2.495017
 ---------------------------------------------------------------------
                    Distance matrix (angstroms):
                    1          2          3          4          5
     1  C    0.000000
     2  C    1.399098   0.000000
     3  C    2.447343   1.406173   0.000000
     4  C    2.798157   2.411033   1.406008   0.000000
     5  C    2.427747   2.791454   2.443472   1.399168   0.000000
     6  C    1.396843   2.413351   2.818039   2.419580   1.400843
     7  H    2.148748   1.086914   2.158963   3.398880   3.878338
     8  H    3.884444   3.399580   2.160324   1.086361   2.149773
     9  H    3.414126   3.878858   3.425332   2.159353   1.087410
    10  H    1.084061   2.171753   3.434717   3.882104   3.403248
    11  C    5.026172   3.988223   3.138118   3.640160   4.751535
    12  C    4.882046   3.700394   2.567106   3.123889   4.456196
    13  C    6.089294   4.936065   3.673614   3.941563   5.307889
    14  C    7.180504   6.089516   4.851684   4.970608   6.251843
    15  C    7.289602   6.278871   5.187050   5.320727   6.475920
    16  C    6.307897   5.352870   4.461583   4.736962   5.789911
    17  H    6.373275   5.217907   3.930490   4.156852   5.530293
    18  H    6.712756   5.876804   5.158805   5.416507   6.310342
    19  H    4.384769   3.447000   2.954277   3.601596   4.506905
    20  C    4.167153   2.906779   1.806751   2.664348   3.998504
    21  H    4.662167   3.439631   2.286217   2.942647   4.303759
    22  H    4.266532   2.887430   2.270473   3.464271   4.677148
    23  O    2.383778   3.670186   4.217216   3.721143   2.458089
    24  O    8.368357   7.282105   5.982495   5.987471   7.260659
    25  H    9.110641   8.053253   6.774334   6.737992   7.962582
    26  H    8.286601   7.319773   6.243041   6.300834   7.394964
    27  H    3.224859   4.397583   4.704723   3.932480   2.545382
                    6          7          8          9         10
     6  C    0.000000
     7  H    3.394167   0.000000
     8  H    3.400249   4.302726   0.000000
     9  H    2.164897   4.965747   2.473524   0.000000
    10  H    2.145417   2.493544   4.968329   4.300462   0.000000
    11  C    5.341948   4.193681   3.580615   5.418602   5.848906
    12  C    5.181560   3.946672   2.925023   5.142319   5.795740
    13  C    6.236959   5.214339   3.383262   5.816407   7.052671
    14  C    7.243454   6.374047   4.305935   6.635452   8.141201
    15  C    7.369382   6.539646   4.785623   6.861557   8.189287
    16  C    6.492571   5.572644   4.463301   6.292507   7.127940
    17  H    6.496738   5.498319   3.537606   6.005331   7.347269
    18  H    6.901959   6.064062   5.237473   6.786389   7.445882
    19  H    4.836561   3.585981   3.842681   5.271650   5.092544
    20  C    4.590531   3.128020   2.717709   4.807910   5.064065
    21  H    5.001244   3.674784   2.806514   5.031637   5.577817
    22  H    4.991589   2.707818   3.726088   5.598459   4.993853
    23  O    1.400304   4.531150   4.602344   2.718211   2.576829
    24  O    8.352472   7.582889   5.182062   7.533139   9.359427
    25  H    9.064333   8.353576   5.921466   8.184314  10.094590
    26  H    8.314234   7.581829   5.716107   7.698908   9.176003
    27  H    1.989791   5.340053   4.645139   2.389314   3.539562
                   11         12         13         14         15
    11  C    0.000000
    12  C    1.409688   0.000000
    13  C    2.421996   1.401019   0.000000
    14  C    2.790534   2.428954   1.399916   0.000000
    15  C    2.433721   2.824419   2.434221   1.398054   0.000000
    16  C    1.397546   2.434548   2.793980   2.411342   1.402984
    17  H    3.416365   2.170515   1.085080   2.143012   3.404368
    18  H    2.155512   3.417828   3.879857   3.394846   2.154690
    19  H    1.085672   2.163953   3.406354   3.876166   3.415500
    20  C    2.104175   1.000000   2.091567   3.333330   3.824316
    21  H    3.059499   1.704521   2.062156   3.459288   4.298994
    22  H    2.412624   1.710504   2.796031   3.939298   4.301553
    23  O    6.616856   6.550873   7.593347   8.548359   8.609163
    24  O    4.188980   3.676269   2.379256   1.400109   2.455801
    25  H    4.682380   4.410751   3.222614   1.989497   2.543834
    26  H    3.419044   3.911436   3.420813   2.165096   1.087017
    27  H    6.983163   6.903475   7.834284   8.718940   8.792088
                   16         17         18         19         20
    16  C    0.000000
    17  H    3.878706   0.000000
    18  H    1.085877   4.964551   0.000000
    19  H    2.156335   4.318589   2.482299   0.000000
    20  C    3.340946   2.466389   4.244314   2.460091   0.000000
    21  H    4.129025   1.900972   5.122150   3.546460   1.098651
    22  H    3.677142   3.158220   4.466778   2.508610   1.098722
    23  O    7.698373   7.853255   8.006838   6.044364   5.987553
    24  O    3.716258   2.559348   4.603197   5.274489   4.468697
    25  H    3.932834   3.523205   4.653300   5.754684   5.277902
    26  H    2.167242   4.299799   2.487178   4.313408   4.911326
    27  H    7.967155   8.073445   8.277217   6.502993   6.416735
                   21         22         23         24         25
    21  H    0.000000
    22  H    1.755215   0.000000
    23  O    6.389504   6.365495   0.000000
    24  O    4.318059   5.087118   9.644277   0.000000
    25  H    5.229790   5.862309  10.325368   0.976108   0.000000
    26  H    5.359805   5.361999   9.506691   2.720621   2.392765
    27  H    6.765699   6.925981   0.976135   9.744155  10.395205
                   26         27
    26  H    0.000000
    27  H    9.641525   0.000000
 Symmetry turned off by external request.
 Stoichiometry    C13H12O2
 Framework group  C1[X(C13H12O2)]
 Deg. of freedom    75
 Full point group                 C1      NOp   1
 Rotational constants (GHZ):           1.6722043           0.2545299           0.2514873
 Standard basis: 6-31++G(d,p) (6D, 7F)
   357 basis functions,   576 primitive gaussians,   357 cartesian basis functions
    53 alpha electrons       53 beta electrons
       nuclear repulsion energy       891.5252237405 Hartrees.
 NAtoms=   27 NActive=   27 NUniq=   27 SFac= 1.00D+00 NAtFMM=   60 NAOKFM=F Big=F
 Integral buffers will be    131072 words long.
 Raffenetti 2 integral format.
 Two-electron integral symmetry is turned off.
 One-electron integrals computed using PRISM.
 NBasis=   357 RedAO= T EigKep=  1.27D-06  NBF=   357
 NBsUse=   355 1.00D-06 EigRej=  7.84D-07 NBFU=   355
 ExpMin= 3.60D-02 ExpMax= 5.48D+03 ExpMxC= 8.25D+02 IAcc=3 IRadAn=         5 AccDes= 0.00D+00
 Harris functional with IExCor=  402 and IRadAn=       5 diagonalized for initial guess.
 HarFok:  IExCor=  402 AccDes= 0.00D+00 IRadAn=         5 IDoV= 1 UseB2=F ITyADJ=14
 ICtDFT=  3500011 ScaDFX=  1.000000  1.000000  1.000000  1.000000
 FoFCou: FMM=F IPFlag=           0 FMFlag=      100000 FMFlg1=           0
         NFxFlg=           0 DoJE=T BraDBF=F KetDBF=T FulRan=T
         wScrn=  0.000000 ICntrl=       500 IOpCl=  0 I1Cent=   200000004 NGrid=           0
         NMat0=    1 NMatS0=      1 NMatT0=    0 NMatD0=    1 NMtDS0=    0 NMtDT0=    0
 Symmetry not used in FoFCou.
 Requested convergence on RMS density matrix=1.00D-08 within 128 cycles.
 Requested convergence on MAX density matrix=1.00D-06.
 Requested convergence on             energy=1.00D-06.
 No special actions if energy rises.
 SCF Done:  E(RB3LYP) =  -652.680800899     A.U. after   16 cycles
            NFock= 16  Conv=0.59D-08     -V/T= 2.0062

 **********************************************************************

            Population analysis using the SCF density.

 **********************************************************************

 Alpha  occ. eigenvalues --  -19.19112 -19.18999 -10.26145 -10.25838 -10.21333
 Alpha  occ. eigenvalues --  -10.20573 -10.20225 -10.20136 -10.20082 -10.19840
 Alpha  occ. eigenvalues --  -10.19470 -10.18811 -10.18446 -10.18334 -10.17050
 Alpha  occ. eigenvalues --   -1.05524  -1.05397  -0.92986  -0.85606  -0.82370
 Alpha  occ. eigenvalues --   -0.75613  -0.75301  -0.74141  -0.69158  -0.63792
 Alpha  occ. eigenvalues --   -0.62864  -0.60786  -0.59283  -0.55001  -0.52733
 Alpha  occ. eigenvalues --   -0.51657  -0.50186  -0.49973  -0.47169  -0.46372
 Alpha  occ. eigenvalues --   -0.44842  -0.43833  -0.42986  -0.41758  -0.40987
 Alpha  occ. eigenvalues --   -0.40776  -0.39908  -0.37923  -0.37680  -0.35606
 Alpha  occ. eigenvalues --   -0.34822  -0.34373  -0.31880  -0.29796  -0.26193
 Alpha  occ. eigenvalues --   -0.24136  -0.23059  -0.21417
 Alpha virt. eigenvalues --   -0.04757  -0.02252  -0.01461  -0.01335  -0.01064
 Alpha virt. eigenvalues --   -0.00427   0.00369   0.00895   0.01306   0.01994
 Alpha virt. eigenvalues --    0.02969   0.03233   0.04287   0.05127   0.05412
 Alpha virt. eigenvalues --    0.05610   0.06904   0.07329   0.07773   0.08226
 Alpha virt. eigenvalues --    0.08779   0.09211   0.09429   0.09850   0.10303
 Alpha virt. eigenvalues --    0.10713   0.10924   0.11420   0.11611   0.12093
 Alpha virt. eigenvalues --    0.12160   0.12443   0.12726   0.12828   0.13318
 Alpha virt. eigenvalues --    0.13912   0.13968   0.14119   0.14582   0.14780
 Alpha virt. eigenvalues --    0.14958   0.15750   0.16016   0.16054   0.16853
 Alpha virt. eigenvalues --    0.17129   0.17406   0.18045   0.18327   0.18915
 Alpha virt. eigenvalues --    0.19328   0.19620   0.20299   0.20451   0.20635
 Alpha virt. eigenvalues --    0.21777   0.22151   0.23118   0.23469   0.24207
 Alpha virt. eigenvalues --    0.24459   0.24868   0.25243   0.25986   0.26390
 Alpha virt. eigenvalues --    0.26862   0.27182   0.27417   0.28159   0.28649
 Alpha virt. eigenvalues --    0.28798   0.29071   0.29503   0.29962   0.30539
 Alpha virt. eigenvalues --    0.30828   0.31000   0.31139   0.31887   0.32116
 Alpha virt. eigenvalues --    0.32699   0.32949   0.33528   0.34070   0.35003
 Alpha virt. eigenvalues --    0.36061   0.36543   0.37126   0.37856   0.38819
 Alpha virt. eigenvalues --    0.39080   0.39907   0.40361   0.41444   0.41887
 Alpha virt. eigenvalues --    0.42514   0.43534   0.46081   0.48446   0.55107
 Alpha virt. eigenvalues --    0.56599   0.58705   0.61799   0.62188   0.64157
 Alpha virt. eigenvalues --    0.66784   0.67656   0.69213   0.70624   0.70913
 Alpha virt. eigenvalues --    0.71592   0.72536   0.73035   0.73857   0.74905
 Alpha virt. eigenvalues --    0.75268   0.76126   0.77008   0.77270   0.78630
 Alpha virt. eigenvalues --    0.79229   0.80389   0.81216   0.82591   0.83818
 Alpha virt. eigenvalues --    0.85314   0.85957   0.88641   0.90671   0.92289
 Alpha virt. eigenvalues --    0.92932   0.96448   0.98432   0.99548   1.00015
 Alpha virt. eigenvalues --    1.01056   1.01759   1.01997   1.02544   1.03347
 Alpha virt. eigenvalues --    1.04059   1.04438   1.07079   1.08136   1.10479
 Alpha virt. eigenvalues --    1.11317   1.13044   1.13727   1.14490   1.15758
 Alpha virt. eigenvalues --    1.16114   1.18761   1.19201   1.19275   1.20656
 Alpha virt. eigenvalues --    1.20991   1.22100   1.23369   1.24114   1.25820
 Alpha virt. eigenvalues --    1.27046   1.28760   1.29676   1.30527   1.32563
 Alpha virt. eigenvalues --    1.33196   1.34357   1.35698   1.35821   1.37214
 Alpha virt. eigenvalues --    1.39043   1.39646   1.40290   1.40831   1.41711
 Alpha virt. eigenvalues --    1.42626   1.42947   1.44777   1.46281   1.48276
 Alpha virt. eigenvalues --    1.49458   1.55580   1.56102   1.59945   1.60285
 Alpha virt. eigenvalues --    1.63439   1.69646   1.72881   1.73889   1.79833
 Alpha virt. eigenvalues --    1.80473   1.83461   1.86436   1.87350   1.87824
 Alpha virt. eigenvalues --    1.88617   1.90074   1.90530   1.91680   1.92660
 Alpha virt. eigenvalues --    1.95650   1.95849   1.96327   1.97166   1.98039
 Alpha virt. eigenvalues --    2.00102   2.00693   2.02790   2.03207   2.05021
 Alpha virt. eigenvalues --    2.06785   2.07740   2.08957   2.12230   2.16434
 Alpha virt. eigenvalues --    2.17209   2.23275   2.24810   2.26255   2.26946
 Alpha virt. eigenvalues --    2.27963   2.29191   2.30481   2.31378   2.32473
 Alpha virt. eigenvalues --    2.34429   2.36251   2.36527   2.39935   2.40442
 Alpha virt. eigenvalues --    2.41109   2.44820   2.45247   2.46083   2.48267
 Alpha virt. eigenvalues --    2.49115   2.51205   2.51692   2.52158   2.52540
 Alpha virt. eigenvalues --    2.54241   2.55952   2.57252   2.57905   2.58795
 Alpha virt. eigenvalues --    2.59360   2.59907   2.61935   2.65860   2.66869
 Alpha virt. eigenvalues --    2.68541   2.70765   2.71396   2.73259   2.73965
 Alpha virt. eigenvalues --    2.75454   2.76812   2.79999   2.81020   2.82796
 Alpha virt. eigenvalues --    2.84830   2.86511   2.92222   2.99811   3.02522
 Alpha virt. eigenvalues --    3.02772   3.06244   3.06546   3.11637   3.17367
 Alpha virt. eigenvalues --    3.19056   3.23806   3.29573   3.30129   3.30766
 Alpha virt. eigenvalues --    3.33664   3.38983   3.41931   3.43229   3.48437
 Alpha virt. eigenvalues --    3.51743   3.54278   3.55146   3.69087   3.74332
 Alpha virt. eigenvalues --    3.81924   4.15818   4.27117   4.28791   4.31751
 Alpha virt. eigenvalues --    4.33282   4.35713   4.41646   4.45610   4.46798
 Alpha virt. eigenvalues --    4.50499   4.51498   4.56006   4.57042   4.75431
 Alpha virt. eigenvalues --    4.84544   5.10926
          Condensed to atoms (all electrons):
               1          2          3          4          5          6
     1  C   10.314270  -0.635972  -0.167830  -1.663352  -0.443862  -1.448172
     2  C   -0.635972  11.391054  -0.443106  -3.819979   0.700338  -0.030367
     3  C   -0.167830  -0.443106  13.491351  -3.324228   0.785985  -1.701900
     4  C   -1.663352  -3.819979  -3.324228  15.217267  -4.225857   2.886592
     5  C   -0.443862   0.700338   0.785985  -4.225857  11.436896  -2.246955
     6  C   -1.448172  -0.030367  -1.701900   2.886592  -2.246955   8.653031
     7  H   -0.195034   0.424071  -0.032372   0.112524  -0.030321   0.053236
     8  H   -0.038959  -0.005296  -0.126189   0.543111  -0.295608   0.089944
     9  H    0.070483   0.052795   0.143085  -0.248836   0.531012  -0.244727
    10  H    0.474182  -0.088007   0.034992  -0.048108   0.046752  -0.124150
    11  C   -0.256783   0.110014   0.746784  -0.013845  -0.497864   0.100854
    12  C    0.713982  -1.633098  -1.527606   0.308957   0.199496  -0.345265
    13  C    0.477766  -0.510918   0.528187  -1.203513   1.074613  -0.352277
    14  C   -0.117613  -0.110008  -0.113602   0.639773  -0.025187   0.106431
    15  C    0.041078  -0.051162   0.182399  -0.151035   0.017799  -0.035725
    16  C   -0.023025   0.474939  -0.065614  -0.046229   0.017877   0.024462
    17  H    0.022107  -0.032817   0.044112  -0.033320   0.066855  -0.017806
    18  H    0.000052   0.006379   0.008884  -0.006633   0.007574  -0.000984
    19  H   -0.019459  -0.179723   0.023711   0.076707  -0.009913  -0.008238
    20  C   -0.862967   0.642084  -2.607496   1.455121  -1.145490   0.486739
    21  H   -0.118189  -0.116784   0.008417   0.264222  -0.047597   0.047898
    22  H    0.070939  -0.031957  -0.253736  -0.013315  -0.055377   0.006762
    23  O   -0.413839   0.074600   0.035438  -0.003939   0.009521   0.300425
    24  O   -0.000026  -0.002481  -0.011376   0.006660   0.000673   0.000034
    25  H   -0.000200  -0.000611  -0.001954   0.002273   0.000043   0.000192
    26  H    0.000769  -0.000263   0.003638  -0.005377  -0.000842  -0.000669
    27  H    0.120813  -0.013811  -0.006692   0.037708  -0.179279   0.044336
               7          8          9         10         11         12
     1  C   -0.195034  -0.038959   0.070483   0.474182  -0.256783   0.713982
     2  C    0.424071  -0.005296   0.052795  -0.088007   0.110014  -1.633098
     3  C   -0.032372  -0.126189   0.143085   0.034992   0.746784  -1.527606
     4  C    0.112524   0.543111  -0.248836  -0.048108  -0.013845   0.308957
     5  C   -0.030321  -0.295608   0.531012   0.046752  -0.497864   0.199496
     6  C    0.053236   0.089944  -0.244727  -0.124150   0.100854  -0.345265
     7  H    0.651477  -0.002754   0.000969  -0.020256  -0.000193  -0.071884
     8  H   -0.002754   0.682179  -0.035012  -0.000378   0.073992   0.044258
     9  H    0.000969  -0.035012   0.677794   0.000241  -0.017143   0.002733
    10  H   -0.020256  -0.000378   0.000241   0.613165   0.009078  -0.001340
    11  C   -0.000193   0.073992  -0.017143   0.009078  27.622513  -8.302530
    12  C   -0.071884   0.044258   0.002733  -0.001340  -8.302530  20.060594
    13  C   -0.019559  -0.231943   0.034679   0.006701 -12.601799  -2.229968
    14  C    0.011575   0.031424  -0.007366  -0.001635  -0.780584   0.253332
    15  C   -0.006860  -0.005722   0.000776   0.001404   4.126603  -1.283303
    16  C    0.031950  -0.012702   0.006624  -0.002832  -6.045103   0.993271
    17  H   -0.000960  -0.017054   0.002091   0.000386  -0.089088  -0.449067
    18  H    0.001101  -0.003057   0.000541  -0.000072  -0.117531   0.051826
    19  H   -0.009854   0.007184  -0.002540   0.001126   0.720024  -0.222103
    20  C   -0.012634   0.170755  -0.051242  -0.025318  -0.100537  -1.473245
    21  H    0.005631   0.008961  -0.003760  -0.000553   0.623751  -0.250748
    22  H   -0.020224   0.007263  -0.001285   0.001571   0.420097  -0.043232
    23  O   -0.001971  -0.001952  -0.020342  -0.032098  -0.002260   0.006553
    24  O   -0.000047   0.001766  -0.000149   0.000002   0.148120   0.063648
    25  H    0.000023   0.000130  -0.000027  -0.000003  -0.025633  -0.006041
    26  H   -0.000176  -0.000316   0.000009   0.000020   0.076914   0.026329
    27  H    0.000043   0.002018  -0.006411   0.002867   0.000503  -0.000688
              13         14         15         16         17         18
     1  C    0.477766  -0.117613   0.041078  -0.023025   0.022107   0.000052
     2  C   -0.510918  -0.110008  -0.051162   0.474939  -0.032817   0.006379
     3  C    0.528187  -0.113602   0.182399  -0.065614   0.044112   0.008884
     4  C   -1.203513   0.639773  -0.151035  -0.046229  -0.033320  -0.006633
     5  C    1.074613  -0.025187   0.017799   0.017877   0.066855   0.007574
     6  C   -0.352277   0.106431  -0.035725   0.024462  -0.017806  -0.000984
     7  H   -0.019559   0.011575  -0.006860   0.031950  -0.000960   0.001101
     8  H   -0.231943   0.031424  -0.005722  -0.012702  -0.017054  -0.003057
     9  H    0.034679  -0.007366   0.000776   0.006624   0.002091   0.000541
    10  H    0.006701  -0.001635   0.001404  -0.002832   0.000386  -0.000072
    11  C  -12.601799  -0.780584   4.126603  -6.045103  -0.089088  -0.117531
    12  C   -2.229968   0.253332  -1.283303   0.993271  -0.449067   0.051826
    13  C   29.950907  -3.247124  -2.398455   2.140805   1.172685   0.133767
    14  C   -3.247124   8.681215  -1.422408   1.069851  -0.164532   0.024349
    15  C   -2.398455  -1.422408   9.018897  -2.107710   0.148339  -0.150062
    16  C    2.140805   1.069851  -2.107710   9.473515  -0.020455   0.360598
    17  H    1.172685  -0.164532   0.148339  -0.020455   0.706394   0.001766
    18  H    0.133767   0.024349  -0.150062   0.360598   0.001766   0.640511
    19  H    0.012354   0.010366   0.090358  -0.282005   0.000633  -0.017910
    20  C   -4.973694   1.257949  -0.912974   0.858380  -0.420294  -0.028262
    21  H   -0.755108   0.239644   0.060924  -0.143055  -0.040268  -0.001209
    22  H   -0.202842  -0.109002   0.045372  -0.022492   0.004546  -0.003406
    23  O    0.001287  -0.000324   0.000123  -0.000996   0.000045  -0.000014
    24  O   -0.415247   0.201256  -0.005499  -0.026102  -0.041008  -0.002069
    25  H    0.067328   0.068351  -0.123893   0.029895   0.002880   0.001385
    26  H   -0.020058  -0.163778   0.473442  -0.098531   0.000490  -0.017259
    27  H   -0.000408   0.000178  -0.000003  -0.000197  -0.000023  -0.000009
              19         20         21         22         23         24
     1  C   -0.019459  -0.862967  -0.118189   0.070939  -0.413839  -0.000026
     2  C   -0.179723   0.642084  -0.116784  -0.031957   0.074600  -0.002481
     3  C    0.023711  -2.607496   0.008417  -0.253736   0.035438  -0.011376
     4  C    0.076707   1.455121   0.264222  -0.013315  -0.003939   0.006660
     5  C   -0.009913  -1.145490  -0.047597  -0.055377   0.009521   0.000673
     6  C   -0.008238   0.486739   0.047898   0.006762   0.300425   0.000034
     7  H   -0.009854  -0.012634   0.005631  -0.020224  -0.001971  -0.000047
     8  H    0.007184   0.170755   0.008961   0.007263  -0.001952   0.001766
     9  H   -0.002540  -0.051242  -0.003760  -0.001285  -0.020342  -0.000149
    10  H    0.001126  -0.025318  -0.000553   0.001571  -0.032098   0.000002
    11  C    0.720024  -0.100537   0.623751   0.420097  -0.002260   0.148120
    12  C   -0.222103  -1.473245  -0.250748  -0.043232   0.006553   0.063648
    13  C    0.012354  -4.973694  -0.755108  -0.202842   0.001287  -0.415247
    14  C    0.010366   1.257949   0.239644  -0.109002  -0.000324   0.201256
    15  C    0.090358  -0.912974   0.060924   0.045372   0.000123  -0.005499
    16  C   -0.282005   0.858380  -0.143055  -0.022492  -0.000996  -0.026102
    17  H    0.000633  -0.420294  -0.040268   0.004546   0.000045  -0.041008
    18  H   -0.017910  -0.028262  -0.001209  -0.003406  -0.000014  -0.002069
    19  H    0.729114  -0.081365   0.027651  -0.001364   0.000584   0.002581
    20  C   -0.081365  14.098386   0.310251   0.344336   0.000879   0.023171
    21  H    0.027651   0.310251   0.794500  -0.096371   0.000029   0.010718
    22  H   -0.001364   0.344336  -0.096371   0.788140   0.000142  -0.000515
    23  O    0.000584   0.000879   0.000029   0.000142   8.360301   0.000000
    24  O    0.002581   0.023171   0.010718  -0.000515   0.000000   8.379323
    25  H    0.000051  -0.003194  -0.000033  -0.000453   0.000000   0.198049
    26  H   -0.002187  -0.017308  -0.000356   0.001273   0.000003  -0.023451
    27  H    0.000026   0.000200   0.000078  -0.000026   0.200633   0.000000
              25         26         27
     1  C   -0.000200   0.000769   0.120813
     2  C   -0.000611  -0.000263  -0.013811
     3  C   -0.001954   0.003638  -0.006692
     4  C    0.002273  -0.005377   0.037708
     5  C    0.000043  -0.000842  -0.179279
     6  C    0.000192  -0.000669   0.044336
     7  H    0.000023  -0.000176   0.000043
     8  H    0.000130  -0.000316   0.002018
     9  H   -0.000027   0.000009  -0.006411
    10  H   -0.000003   0.000020   0.002867
    11  C   -0.025633   0.076914   0.000503
    12  C   -0.006041   0.026329  -0.000688
    13  C    0.067328  -0.020058  -0.000408
    14  C    0.068351  -0.163778   0.000178
    15  C   -0.123893   0.473442  -0.000003
    16  C    0.029895  -0.098531  -0.000197
    17  H    0.002880   0.000490  -0.000023
    18  H    0.001385  -0.017259  -0.000009
    19  H    0.000051  -0.002187   0.000026
    20  C   -0.003194  -0.017308   0.000200
    21  H   -0.000033  -0.000356   0.000078
    22  H   -0.000453   0.001273  -0.000026
    23  O    0.000000   0.000003   0.200633
    24  O    0.198049  -0.023451   0.000000
    25  H    0.431662  -0.004888   0.000000
    26  H   -0.004888   0.670552   0.000000
    27  H    0.000000   0.000000   0.434837
 Mulliken charges:
               1
     1  C    0.098842
     2  C   -0.169915
     3  C    0.346716
     4  C   -0.743348
     5  C    0.308717
     6  C   -0.243702
     7  H    0.132498
     8  H    0.113956
     9  H    0.115009
    10  H    0.152262
    11  C    0.071644
    12  C    1.115137
    13  C   -0.438168
    14  C   -0.332531
    15  C    0.447295
    16  C   -0.585120
    17  H    0.153362
    18  H    0.109741
    19  H    0.134193
    20  C   -0.932232
    21  H    0.171355
    22  H    0.165156
    23  O   -0.512828
    24  O   -0.508030
    25  H    0.364668
    26  H    0.102020
    27  H    0.363304
 Sum of Mulliken charges =   0.00000
 Mulliken charges with hydrogens summed into heavy atoms:
               1
     1  C    0.251104
     2  C   -0.037416
     3  C    0.346716
     4  C   -0.629391
     5  C    0.423726
     6  C   -0.243702
    11  C    0.205837
    12  C    1.115137
    13  C   -0.284806
    14  C   -0.332531
    15  C    0.549314
    16  C   -0.475379
    20  C   -0.595722
    23  O   -0.149524
    24  O   -0.143363
 Electronic spatial extent (au):  <R**2>=           9378.5674
 Charge=              0.0000 electrons
 Dipole moment (field-independent basis, Debye):
    X=              1.2194    Y=             -1.3811    Z=              0.1964  Tot=              1.8528
 Quadrupole moment (field-independent basis, Debye-Ang):
   XX=            -77.9452   YY=            -84.2516   ZZ=            -83.7943
   XY=             -6.8955   XZ=             -0.7886   YZ=             -9.7552
 Traceless Quadrupole moment (field-independent basis, Debye-Ang):
   XX=              4.0518   YY=             -2.2546   ZZ=             -1.7972
   XY=             -6.8955   XZ=             -0.7886   YZ=             -9.7552
 Octapole moment (field-independent basis, Debye-Ang**2):
  XXX=           -503.0484  YYY=            221.3168  ZZZ=           -732.9427  XYY=           -152.7625
  XXY=             44.2251  XXZ=           -226.9599  XZZ=           -121.9134  YZZ=             13.7999
  YYZ=           -204.4782  XYZ=            -60.6860
 Hexadecapole moment (field-independent basis, Debye-Ang**3):
 XXXX=          -3082.8681 YYYY=          -1259.5703 ZZZZ=          -7893.8475 XXXY=            504.7074
 XXXZ=          -1969.2445 YYYX=            615.2770 YYYZ=           1111.1883 ZZZX=          -1800.8706
 ZZZY=            771.8416 XXYY=           -634.0612 XXZZ=          -1469.0706 YYZZ=          -1275.6059
 XXYZ=             79.6253 YYXZ=           -483.2301 ZZXY=           -234.9449
 N-N= 8.915252237405D+02 E-N=-3.301305670608D+03  KE= 6.486608856209D+02
 Variable Step   Value    
 -------- ---- -----------
    19       1    2.078699
 ---------------------------------------------------------------------------------------------------
                            Z-MATRIX (ANGSTROMS AND DEGREES)
   CD    Cent   Atom    N1       Length/X        N2       Alpha/Y        N3        Beta/Z          J
 ---------------------------------------------------------------------------------------------------
      1      1  C 
      2      2  C        1   1.399098(     1)
      3      3  C        2   1.406173(     2)      1  121.479(    27)
      4      4  C        3   1.406008(     3)      2  118.041(    28)      1   -0.083(    52)      0
      5      5  C        4   1.399168(     4)      3  121.164(    29)      2    0.145(    53)      0
      6      6  C        1   1.396843(     5)      2  119.347(    30)      3   -0.025(    54)      0
      7      7  H        2   1.086914(     6)      1  119.081(    31)      6  179.918(    55)      0
      8      8  H        4   1.086361(     7)      3  119.622(    32)      2 -179.382(    56)      0
      9      9  H        5   1.087410(     8)      4  120.026(    33)      3  179.975(    57)      0
     10     10  H        1   1.084061(     9)      6  119.177(    34)      5 -179.870(    58)      0
     11     11  C        3   3.138118(    10)      2  117.542(    35)      1 -119.048(    59)      0
     12     12  C       11   1.409688(    11)      3   53.643(    36)      2 -138.843(    60)      0
     13     13  C       12   1.401019(    12)     11  119.016(    37)      3 -153.773(    61)      0
     14     14  C       13   1.399916(    13)     12  120.268(    38)     11   -0.107(    62)      0
     15     15  C       14   1.398054(    14)     13  120.916(    39)     12   -0.037(    63)      0
     16     16  C       11   1.397546(    15)      3  157.520(    40)      2  139.290(    64)      0
     17     17  H       13   1.085080(    16)     12  121.109(    41)     11 -179.925(    65)      0
     18     18  H       16   1.085877(    17)     11  119.922(    42)      3 -112.745(    66)      0
     19     19  H       11   1.085672(    18)      3   70.284(    43)      2   17.709(    67)      0
     20     20  C       12   1.100000(    19)     11  120.722(    44)      3   27.182(    68)      0
     21     21  H       20   1.098651(    20)     12  108.531(    45)     11 -179.568(    69)      0
     22     22  H       20   1.098722(    21)     12  109.089(    46)     11   65.336(    70)      0
     23     23  O        6   1.400304(    22)      1  116.907(    47)      2  179.957(    71)      0
     24     24  O       14   1.400109(    23)     13  116.364(    48)     12  179.869(    72)      0
     25     25  H       24   0.976108(    24)     14  112.478(    49)     13  179.568(    73)      0
     26     26  H       15   1.087017(    25)     14  120.694(    50)     13 -179.998(    74)      0
     27     27  H       23   0.976135(    26)      6  112.487(    51)      1  179.994(    75)      0
 ---------------------------------------------------------------------------------------------------
                         Z-Matrix orientation:                         
 ---------------------------------------------------------------------
 Center     Atomic      Atomic             Coordinates (Angstroms)
 Number     Number       Type             X           Y           Z
 ---------------------------------------------------------------------
      1          6           0        0.000000    0.000000    0.000000
      2          6           0        0.000000    0.000000    1.399098
      3          6           0        1.199224    0.000000    2.133390
      4          6           0        2.410940   -0.001806    1.420228
      5          6           0        2.427655   -0.000528    0.021161
      6          6           0        1.217582    0.000540   -0.684590
      7          1           0       -0.949889    0.000936    1.927389
      8          1           0        3.352681   -0.012033    1.961707
      9          1           0        3.375563   -0.001559   -0.511690
     10          1           0       -0.924555   -0.001299   -0.566025
     11          6           0        1.731215   -2.432489    4.043302
     12          6           0        1.995036   -1.076421    4.323831
     13          6           0        3.002294   -0.756175    5.243466
     14          6           0        3.731504   -1.771661    5.873392
     15          6           0        3.471332   -3.117932    5.600594
     16          6           0        2.463032   -3.438959    4.679380
     17          1           0        3.232871    0.276124    5.485521
     18          1           0        2.253435   -4.481720    4.460640
     19          1           0        0.960687   -2.693091    3.324235
     20          6           0        1.410464   -0.278844    3.842016
     21          1           0        1.785804    0.691335    4.195435
     22          1           0        0.367485   -0.342570    4.181607
     23          8           0        1.157976   -0.000422   -2.083624
     24          8           0        4.720198   -1.359516    6.775016
     25          1           0        5.187865   -2.111577    7.185477
     26          1           0        4.039758   -3.903539    6.091838
     27          1           0        2.043185    0.000126   -2.495017
 ---------------------------------------------------------------------
                    Distance matrix (angstroms):
                    1          2          3          4          5
     1  C    0.000000
     2  C    1.399098   0.000000
     3  C    2.447343   1.406173   0.000000
     4  C    2.798157   2.411033   1.406008   0.000000
     5  C    2.427747   2.791454   2.443472   1.399168   0.000000
     6  C    1.396843   2.413351   2.818039   2.419580   1.400843
     7  H    2.148748   1.086914   2.158963   3.398880   3.878338
     8  H    3.884444   3.399580   2.160324   1.086361   2.149773
     9  H    3.414126   3.878858   3.425332   2.159353   1.087410
    10  H    1.084061   2.171753   3.434717   3.882104   3.403248
    11  C    5.026172   3.988223   3.138118   3.640160   4.751535
    12  C    4.882046   3.700394   2.567106   3.123889   4.456196
    13  C    6.089294   4.936065   3.673614   3.941563   5.307889
    14  C    7.180504   6.089516   4.851684   4.970608   6.251843
    15  C    7.289602   6.278871   5.187050   5.320727   6.475920
    16  C    6.307897   5.352870   4.461583   4.736962   5.789911
    17  H    6.373275   5.217907   3.930490   4.156852   5.530293
    18  H    6.712756   5.876804   5.158805   5.416507   6.310342
    19  H    4.384769   3.447000   2.954277   3.601596   4.506905
    20  C    4.102225   2.834609   1.744070   2.634911   3.963719
    21  H    4.611802   3.389180   2.252566   2.927971   4.279628
    22  H    4.211679   2.827500   2.237038   3.452107   4.655170
    23  O    2.383778   3.670186   4.217216   3.721143   2.458089
    24  O    8.368357   7.282105   5.982495   5.987471   7.260659
    25  H    9.110641   8.053253   6.774334   6.737992   7.962582
    26  H    8.286601   7.319773   6.243041   6.300834   7.394964
    27  H    3.224859   4.397583   4.704723   3.932480   2.545382
                    6          7          8          9         10
     6  C    0.000000
     7  H    3.394167   0.000000
     8  H    3.400249   4.302726   0.000000
     9  H    2.164897   4.965747   2.473524   0.000000
    10  H    2.145417   2.493544   4.968329   4.300462   0.000000
    11  C    5.341948   4.193681   3.580615   5.418602   5.848906
    12  C    5.181560   3.946672   2.925023   5.142319   5.795740
    13  C    6.236959   5.214339   3.383262   5.816407   7.052671
    14  C    7.243454   6.374047   4.305935   6.635452   8.141201
    15  C    7.369382   6.539646   4.785623   6.861557   8.189287
    16  C    6.492571   5.572644   4.463301   6.292507   7.127940
    17  H    6.496738   5.498319   3.537606   6.005331   7.347269
    18  H    6.901959   6.064062   5.237473   6.786389   7.445882
    19  H    4.836561   3.585981   3.842681   5.271650   5.092544
    20  C    4.539319   3.052104   2.716424   4.784689   4.996015
    21  H    4.961322   3.620041   2.817690   5.016419   5.522435
    22  H    4.951794   2.633433   3.734784   5.584967   4.932124
    23  O    1.400304   4.531150   4.602344   2.718211   2.576829
    24  O    8.352472   7.582889   5.182062   7.533139   9.359427
    25  H    9.064333   8.353576   5.921466   8.184314  10.094590
    26  H    8.314234   7.581829   5.716107   7.698908   9.176003
    27  H    1.989791   5.340053   4.645139   2.389314   3.539562
                   11         12         13         14         15
    11  C    0.000000
    12  C    1.409688   0.000000
    13  C    2.421996   1.401019   0.000000
    14  C    2.790534   2.428954   1.399916   0.000000
    15  C    2.433721   2.824419   2.434221   1.398054   0.000000
    16  C    1.397546   2.434548   2.793980   2.411342   1.402984
    17  H    3.416365   2.170515   1.085080   2.143012   3.404368
    18  H    2.155512   3.417828   3.879857   3.394846   2.154690
    19  H    1.085672   2.163953   3.406354   3.876166   3.415500
    20  C    2.186684   1.100000   2.173898   3.426692   3.924308
    21  H    3.128003   1.784720   2.161829   3.559162   4.396134
    22  H    2.499330   1.791002   2.870685   4.027538   4.398867
    23  O    6.616856   6.550873   7.593347   8.548359   8.609163
    24  O    4.188980   3.676269   2.379256   1.400109   2.455801
    25  H    4.682380   4.410751   3.222614   1.989497   2.543834
    26  H    3.419044   3.911436   3.420813   2.165096   1.087017
    27  H    6.983163   6.903475   7.834284   8.718940   8.792088
                   16         17         18         19         20
    16  C    0.000000
    17  H    3.878706   0.000000
    18  H    1.085877   4.964551   0.000000
    19  H    2.156335   4.318589   2.482299   0.000000
    20  C    3.434444   2.516002   4.330989   2.509778   0.000000
    21  H    4.213333   1.982605   5.200915   3.590842   1.098651
    22  H    3.771833   3.208334   4.557108   2.571366   1.098722
    23  O    7.698373   7.853255   8.006838   6.044364   5.937548
    24  O    3.716258   2.559348   4.603197   5.274489   4.552437
    25  H    3.932834   3.523205   4.653300   5.754684   5.367160
    26  H    2.167242   4.299799   2.487178   4.313408   5.011317
    27  H    7.967155   8.073445   8.277217   6.502993   6.374649
                   21         22         23         24         25
    21  H    0.000000
    22  H    1.755215   0.000000
    23  O    6.348172   6.324166   0.000000
    24  O    4.412584   5.167791   9.644277   0.000000
    25  H    5.326414   5.948839  10.325368   0.976108   0.000000
    26  H    5.457978   5.460318   9.506691   2.720621   2.392765
    27  H    6.730986   6.892222   0.976135   9.744155  10.395205
                   26         27
    26  H    0.000000
    27  H    9.641525   0.000000
 Symmetry turned off by external request.
 Stoichiometry    C13H12O2
 Framework group  C1[X(C13H12O2)]
 Deg. of freedom    75
 Full point group                 C1      NOp   1
 Rotational constants (GHZ):           1.6596607           0.2543909           0.2516238
 Standard basis: 6-31++G(d,p) (6D, 7F)
   357 basis functions,   576 primitive gaussians,   357 cartesian basis functions
    53 alpha electrons       53 beta electrons
       nuclear repulsion energy       888.9648701758 Hartrees.
 NAtoms=   27 NActive=   27 NUniq=   27 SFac= 1.00D+00 NAtFMM=   60 NAOKFM=F Big=F
 Integral buffers will be    131072 words long.
 Raffenetti 2 integral format.
 Two-electron integral symmetry is turned off.
 One-electron integrals computed using PRISM.
 NBasis=   357 RedAO= T EigKep=  1.41D-06  NBF=   357
 NBsUse=   355 1.00D-06 EigRej=  8.21D-07 NBFU=   355
 Initial guess from the checkpoint file:  "C:\Users\Administrator\Desktop\dataset_dft\C12H8O1\C12H8O1.chk"
 B after Tr=    -0.003668    0.007737   -0.010018
         Rot=    1.000000    0.000596    0.000204    0.000477 Ang=   0.09 deg.
 ExpMin= 3.60D-02 ExpMax= 5.48D+03 ExpMxC= 8.25D+02 IAcc=3 IRadAn=         5 AccDes= 0.00D+00
 Harris functional with IExCor=  402 and IRadAn=       5 diagonalized for initial guess.
 HarFok:  IExCor=  402 AccDes= 0.00D+00 IRadAn=         5 IDoV= 1 UseB2=F ITyADJ=14
 ICtDFT=  3500011 ScaDFX=  1.000000  1.000000  1.000000  1.000000
 FoFCou: FMM=F IPFlag=           0 FMFlag=      100000 FMFlg1=           0
         NFxFlg=           0 DoJE=T BraDBF=F KetDBF=T FulRan=T
         wScrn=  0.000000 ICntrl=       500 IOpCl=  0 I1Cent=   200000004 NGrid=           0
         NMat0=    1 NMatS0=      1 NMatT0=    0 NMatD0=    1 NMtDS0=    0 NMtDT0=    0
 Symmetry not used in FoFCou.
 Requested convergence on RMS density matrix=1.00D-08 within 128 cycles.
 Requested convergence on MAX density matrix=1.00D-06.
 Requested convergence on             energy=1.00D-06.
 No special actions if energy rises.
 SCF Done:  E(RB3LYP) =  -652.878388264     A.U. after   14 cycles
            NFock= 14  Conv=0.66D-08     -V/T= 2.0077
 Variable Step   Value    
 -------- ---- -----------
    19       2    2.267671
 ---------------------------------------------------------------------------------------------------
                            Z-MATRIX (ANGSTROMS AND DEGREES)
   CD    Cent   Atom    N1       Length/X        N2       Alpha/Y        N3        Beta/Z          J
 ---------------------------------------------------------------------------------------------------
      1      1  C 
      2      2  C        1   1.399098(     1)
      3      3  C        2   1.406173(     2)      1  121.479(    27)
      4      4  C        3   1.406008(     3)      2  118.041(    28)      1   -0.083(    52)      0
      5      5  C        4   1.399168(     4)      3  121.164(    29)      2    0.145(    53)      0
      6      6  C        1   1.396843(     5)      2  119.347(    30)      3   -0.025(    54)      0
      7      7  H        2   1.086914(     6)      1  119.081(    31)      6  179.918(    55)      0
      8      8  H        4   1.086361(     7)      3  119.622(    32)      2 -179.382(    56)      0
      9      9  H        5   1.087410(     8)      4  120.026(    33)      3  179.975(    57)      0
     10     10  H        1   1.084061(     9)      6  119.177(    34)      5 -179.870(    58)      0
     11     11  C        3   3.138118(    10)      2  117.542(    35)      1 -119.048(    59)      0
     12     12  C       11   1.409688(    11)      3   53.643(    36)      2 -138.843(    60)      0
     13     13  C       12   1.401019(    12)     11  119.016(    37)      3 -153.773(    61)      0
     14     14  C       13   1.399916(    13)     12  120.268(    38)     11   -0.107(    62)      0
     15     15  C       14   1.398054(    14)     13  120.916(    39)     12   -0.037(    63)      0
     16     16  C       11   1.397546(    15)      3  157.520(    40)      2  139.290(    64)      0
     17     17  H       13   1.085080(    16)     12  121.109(    41)     11 -179.925(    65)      0
     18     18  H       16   1.085877(    17)     11  119.922(    42)      3 -112.745(    66)      0
     19     19  H       11   1.085672(    18)      3   70.284(    43)      2   17.709(    67)      0
     20     20  C       12   1.200000(    19)     11  120.722(    44)      3   27.182(    68)      0
     21     21  H       20   1.098651(    20)     12  108.531(    45)     11 -179.568(    69)      0
     22     22  H       20   1.098722(    21)     12  109.089(    46)     11   65.336(    70)      0
     23     23  O        6   1.400304(    22)      1  116.907(    47)      2  179.957(    71)      0
     24     24  O       14   1.400109(    23)     13  116.364(    48)     12  179.869(    72)      0
     25     25  H       24   0.976108(    24)     14  112.478(    49)     13  179.568(    73)      0
     26     26  H       15   1.087017(    25)     14  120.694(    50)     13 -179.998(    74)      0
     27     27  H       23   0.976135(    26)      6  112.487(    51)      1  179.994(    75)      0
 ---------------------------------------------------------------------------------------------------
                         Z-Matrix orientation:                         
 ---------------------------------------------------------------------
 Center     Atomic      Atomic             Coordinates (Angstroms)
 Number     Number       Type             X           Y           Z
 ---------------------------------------------------------------------
      1          6           0        0.000000    0.000000    0.000000
      2          6           0        0.000000    0.000000    1.399098
      3          6           0        1.199224    0.000000    2.133390
      4          6           0        2.410940   -0.001806    1.420228
      5          6           0        2.427655   -0.000528    0.021161
      6          6           0        1.217582    0.000540   -0.684590
      7          1           0       -0.949889    0.000936    1.927389
      8          1           0        3.352681   -0.012033    1.961707
      9          1           0        3.375563   -0.001559   -0.511690
     10          1           0       -0.924555   -0.001299   -0.566025
     11          6           0        1.731215   -2.432489    4.043302
     12          6           0        1.995036   -1.076421    4.323831
     13          6           0        3.002294   -0.756175    5.243466
     14          6           0        3.731504   -1.771661    5.873392
     15          6           0        3.471332   -3.117932    5.600594
     16          6           0        2.463032   -3.438959    4.679380
     17          1           0        3.232871    0.276124    5.485521
     18          1           0        2.253435   -4.481720    4.460640
     19          1           0        0.960687   -2.693091    3.324235
     20          6           0        1.357321   -0.206337    3.798214
     21          1           0        1.732661    0.763842    4.151634
     22          1           0        0.314342   -0.270063    4.137806
     23          8           0        1.157976   -0.000422   -2.083624
     24          8           0        4.720198   -1.359516    6.775016
     25          1           0        5.187865   -2.111577    7.185477
     26          1           0        4.039758   -3.903539    6.091838
     27          1           0        2.043185    0.000126   -2.495017
 ---------------------------------------------------------------------
                    Distance matrix (angstroms):
                    1          2          3          4          5
     1  C    0.000000
     2  C    1.399098   0.000000
     3  C    2.447343   1.406173   0.000000
     4  C    2.798157   2.411033   1.406008   0.000000
     5  C    2.427747   2.791454   2.443472   1.399168   0.000000
     6  C    1.396843   2.413351   2.818039   2.419580   1.400843
     7  H    2.148748   1.086914   2.158963   3.398880   3.878338
     8  H    3.884444   3.399580   2.160324   1.086361   2.149773
     9  H    3.414126   3.878858   3.425332   2.159353   1.087410
    10  H    1.084061   2.171753   3.434717   3.882104   3.403248
    11  C    5.026172   3.988223   3.138118   3.640160   4.751535
    12  C    4.882046   3.700394   2.567106   3.123889   4.456196
    13  C    6.089294   4.936065   3.673614   3.941563   5.307889
    14  C    7.180504   6.089516   4.851684   4.970608   6.251843
    15  C    7.289602   6.278871   5.187050   5.320727   6.475920
    16  C    6.307897   5.352870   4.461583   4.736962   5.789911
    17  H    6.373275   5.217907   3.930490   4.156852   5.530293
    18  H    6.712756   5.876804   5.158805   5.416507   6.310342
    19  H    4.384769   3.447000   2.954277   3.601596   4.506905
    20  C    4.038728   2.764173   1.684996   2.608977   3.931171
    21  H    4.563073   3.340961   2.222908   2.916651   4.257709
    22  H    4.158507   2.769886   2.207631   3.442806   4.635246
    23  O    2.383778   3.670186   4.217216   3.721143   2.458089
    24  O    8.368357   7.282105   5.982495   5.987471   7.260659
    25  H    9.110641   8.053253   6.774334   6.737992   7.962582
    26  H    8.286601   7.319773   6.243041   6.300834   7.394964
    27  H    3.224859   4.397583   4.704723   3.932480   2.545382
                    6          7          8          9         10
     6  C    0.000000
     7  H    3.394167   0.000000
     8  H    3.400249   4.302726   0.000000
     9  H    2.164897   4.965747   2.473524   0.000000
    10  H    2.145417   2.493544   4.968329   4.300462   0.000000
    11  C    5.341948   4.193681   3.580615   5.418602   5.848906
    12  C    5.181560   3.946672   2.925023   5.142319   5.795740
    13  C    6.236959   5.214339   3.383262   5.816407   7.052671
    14  C    7.243454   6.374047   4.305935   6.635452   8.141201
    15  C    7.369382   6.539646   4.785623   6.861557   8.189287
    16  C    6.492571   5.572644   4.463301   6.292507   7.127940
    17  H    6.496738   5.498319   3.537606   6.005331   7.347269
    18  H    6.901959   6.064062   5.237473   6.786389   7.445882
    19  H    4.836561   3.585981   3.842681   5.271650   5.092544
    20  C    4.489750   2.977611   2.718819   4.763455   4.929055
    21  H    4.923109   3.567263   2.832354   5.003154   5.468322
    22  H    4.913713   2.560793   3.746131   5.573238   4.871666
    23  O    1.400304   4.531150   4.602344   2.718211   2.576829
    24  O    8.352472   7.582889   5.182062   7.533139   9.359427
    25  H    9.064333   8.353576   5.921466   8.184314  10.094590
    26  H    8.314234   7.581829   5.716107   7.698908   9.176003
    27  H    1.989791   5.340053   4.645139   2.389314   3.539562
                   11         12         13         14         15
    11  C    0.000000
    12  C    1.409688   0.000000
    13  C    2.421996   1.401019   0.000000
    14  C    2.790534   2.428954   1.399916   0.000000
    15  C    2.433721   2.824419   2.434221   1.398054   0.000000
    16  C    1.397546   2.434548   2.793980   2.411342   1.402984
    17  H    3.416365   2.170515   1.085080   2.143012   3.404368
    18  H    2.155512   3.417828   3.879857   3.394846   2.154690
    19  H    1.085672   2.163953   3.406354   3.876166   3.415500
    20  C    2.270599   1.200000   2.257656   3.520418   4.024301
    21  H    3.198167   1.866832   2.261530   3.659044   4.493399
    22  H    2.586996   1.873380   2.946842   4.116315   4.496298
    23  O    6.616856   6.550873   7.593347   8.548359   8.609163
    24  O    4.188980   3.676269   2.379256   1.400109   2.455801
    25  H    4.682380   4.410751   3.222614   1.989497   2.543834
    26  H    3.419044   3.911436   3.420813   2.165096   1.087017
    27  H    6.983163   6.903475   7.834284   8.718940   8.792088
                   16         17         18         19         20
    16  C    0.000000
    17  H    3.878706   0.000000
    18  H    1.085877   4.964551   0.000000
    19  H    2.156335   4.318589   2.482299   0.000000
    20  C    3.528299   2.568552   4.418227   2.562405   0.000000
    21  H    4.298314   2.065854   5.280399   3.637433   1.098651
    22  H    3.866792   3.260746   4.647834   2.636422   1.098722
    23  O    7.698373   7.853255   8.006838   6.044364   5.888817
    24  O    3.716258   2.559348   4.603197   5.274489   4.636822
    25  H    3.932834   3.523205   4.653300   5.754684   5.456790
    26  H    2.167242   4.299799   2.487178   4.313408   5.111309
    27  H    7.967155   8.073445   8.277217   6.502993   6.333861
                   21         22         23         24         25
    21  H    0.000000
    22  H    1.755215   0.000000
    23  O    6.308154   6.284156   0.000000
    24  O    4.507346   5.249129   9.644277   0.000000
    25  H    5.423161   6.035785  10.325368   0.976108   0.000000
    26  H    5.556216   5.558697   9.506691   2.720621   2.392765
    27  H    6.697586   6.859756   0.976135   9.744155  10.395205
                   26         27
    26  H    0.000000
    27  H    9.641525   0.000000
 Symmetry turned off by external request.
 Stoichiometry    C13H12O2
 Framework group  C1[X(C13H12O2)]
 Deg. of freedom    75
 Full point group                 C1      NOp   1
 Rotational constants (GHZ):           1.6467767           0.2542220           0.2517367
 Standard basis: 6-31++G(d,p) (6D, 7F)
   357 basis functions,   576 primitive gaussians,   357 cartesian basis functions
    53 alpha electrons       53 beta electrons
       nuclear repulsion energy       886.7757244968 Hartrees.
 NAtoms=   27 NActive=   27 NUniq=   27 SFac= 1.00D+00 NAtFMM=   60 NAOKFM=F Big=F
 Integral buffers will be    131072 words long.
 Raffenetti 2 integral format.
 Two-electron integral symmetry is turned off.
 One-electron integrals computed using PRISM.
 NBasis=   357 RedAO= T EigKep=  1.72D-06  NBF=   357
 NBsUse=   355 1.00D-06 EigRej=  9.39D-07 NBFU=   355
 Initial guess from the checkpoint file:  "C:\Users\Administrator\Desktop\dataset_dft\C12H8O1\C12H8O1.chk"
 B after Tr=    -0.003686    0.007723   -0.010003
         Rot=    1.000000    0.000594    0.000205    0.000473 Ang=   0.09 deg.
 ExpMin= 3.60D-02 ExpMax= 5.48D+03 ExpMxC= 8.25D+02 IAcc=3 IRadAn=         5 AccDes= 0.00D+00
 Harris functional with IExCor=  402 and IRadAn=       5 diagonalized for initial guess.
 HarFok:  IExCor=  402 AccDes= 0.00D+00 IRadAn=         5 IDoV= 1 UseB2=F ITyADJ=14
 ICtDFT=  3500011 ScaDFX=  1.000000  1.000000  1.000000  1.000000
 FoFCou: FMM=F IPFlag=           0 FMFlag=      100000 FMFlg1=           0
         NFxFlg=           0 DoJE=T BraDBF=F KetDBF=T FulRan=T
         wScrn=  0.000000 ICntrl=       500 IOpCl=  0 I1Cent=   200000004 NGrid=           0
         NMat0=    1 NMatS0=      1 NMatT0=    0 NMatD0=    1 NMtDS0=    0 NMtDT0=    0
 Symmetry not used in FoFCou.
 Requested convergence on RMS density matrix=1.00D-08 within 128 cycles.
 Requested convergence on MAX density matrix=1.00D-06.
 Requested convergence on             energy=1.00D-06.
 No special actions if energy rises.
 SCF Done:  E(RB3LYP) =  -652.994227851     A.U. after   14 cycles
            NFock= 14  Conv=0.41D-08     -V/T= 2.0087
 Variable Step   Value    
 -------- ---- -----------
    19       3    2.456644
 ---------------------------------------------------------------------------------------------------
                            Z-MATRIX (ANGSTROMS AND DEGREES)
   CD    Cent   Atom    N1       Length/X        N2       Alpha/Y        N3        Beta/Z          J
 ---------------------------------------------------------------------------------------------------
      1      1  C 
      2      2  C        1   1.399098(     1)
      3      3  C        2   1.406173(     2)      1  121.479(    27)
      4      4  C        3   1.406008(     3)      2  118.041(    28)      1   -0.083(    52)      0
      5      5  C        4   1.399168(     4)      3  121.164(    29)      2    0.145(    53)      0
      6      6  C        1   1.396843(     5)      2  119.347(    30)      3   -0.025(    54)      0
      7      7  H        2   1.086914(     6)      1  119.081(    31)      6  179.918(    55)      0
      8      8  H        4   1.086361(     7)      3  119.622(    32)      2 -179.382(    56)      0
      9      9  H        5   1.087410(     8)      4  120.026(    33)      3  179.975(    57)      0
     10     10  H        1   1.084061(     9)      6  119.177(    34)      5 -179.870(    58)      0
     11     11  C        3   3.138118(    10)      2  117.542(    35)      1 -119.048(    59)      0
     12     12  C       11   1.409688(    11)      3   53.643(    36)      2 -138.843(    60)      0
     13     13  C       12   1.401019(    12)     11  119.016(    37)      3 -153.773(    61)      0
     14     14  C       13   1.399916(    13)     12  120.268(    38)     11   -0.107(    62)      0
     15     15  C       14   1.398054(    14)     13  120.916(    39)     12   -0.037(    63)      0
     16     16  C       11   1.397546(    15)      3  157.520(    40)      2  139.290(    64)      0
     17     17  H       13   1.085080(    16)     12  121.109(    41)     11 -179.925(    65)      0
     18     18  H       16   1.085877(    17)     11  119.922(    42)      3 -112.745(    66)      0
     19     19  H       11   1.085672(    18)      3   70.284(    43)      2   17.709(    67)      0
     20     20  C       12   1.300000(    19)     11  120.722(    44)      3   27.182(    68)      0
     21     21  H       20   1.098651(    20)     12  108.531(    45)     11 -179.568(    69)      0
     22     22  H       20   1.098722(    21)     12  109.089(    46)     11   65.336(    70)      0
     23     23  O        6   1.400304(    22)      1  116.907(    47)      2  179.957(    71)      0
     24     24  O       14   1.400109(    23)     13  116.364(    48)     12  179.869(    72)      0
     25     25  H       24   0.976108(    24)     14  112.478(    49)     13  179.568(    73)      0
     26     26  H       15   1.087017(    25)     14  120.694(    50)     13 -179.998(    74)      0
     27     27  H       23   0.976135(    26)      6  112.487(    51)      1  179.994(    75)      0
 ---------------------------------------------------------------------------------------------------
                         Z-Matrix orientation:                         
 ---------------------------------------------------------------------
 Center     Atomic      Atomic             Coordinates (Angstroms)
 Number     Number       Type             X           Y           Z
 ---------------------------------------------------------------------
      1          6           0        0.000000    0.000000    0.000000
      2          6           0        0.000000    0.000000    1.399098
      3          6           0        1.199224    0.000000    2.133390
      4          6           0        2.410940   -0.001806    1.420228
      5          6           0        2.427655   -0.000528    0.021161
      6          6           0        1.217582    0.000540   -0.684590
      7          1           0       -0.949889    0.000936    1.927389
      8          1           0        3.352681   -0.012033    1.961707
      9          1           0        3.375563   -0.001559   -0.511690
     10          1           0       -0.924555   -0.001299   -0.566025
     11          6           0        1.731215   -2.432489    4.043302
     12          6           0        1.995036   -1.076421    4.323831
     13          6           0        3.002294   -0.756175    5.243466
     14          6           0        3.731504   -1.771661    5.873392
     15          6           0        3.471332   -3.117932    5.600594
     16          6           0        2.463032   -3.438959    4.679380
     17          1           0        3.232871    0.276124    5.485521
     18          1           0        2.253435   -4.481720    4.460640
     19          1           0        0.960687   -2.693091    3.324235
     20          6           0        1.304178   -0.133830    3.754413
     21          1           0        1.679518    0.836349    4.107832
     22          1           0        0.261199   -0.197556    4.094005
     23          8           0        1.157976   -0.000422   -2.083624
     24          8           0        4.720198   -1.359516    6.775016
     25          1           0        5.187865   -2.111577    7.185477
     26          1           0        4.039758   -3.903539    6.091838
     27          1           0        2.043185    0.000126   -2.495017
 ---------------------------------------------------------------------
                    Distance matrix (angstroms):
                    1          2          3          4          5
     1  C    0.000000
     2  C    1.399098   0.000000
     3  C    2.447343   1.406173   0.000000
     4  C    2.798157   2.411033   1.406008   0.000000
     5  C    2.427747   2.791454   2.443472   1.399168   0.000000
     6  C    1.396843   2.413351   2.818039   2.419580   1.400843
     7  H    2.148748   1.086914   2.158963   3.398880   3.878338
     8  H    3.884444   3.399580   2.160324   1.086361   2.149773
     9  H    3.414126   3.878858   3.425332   2.159353   1.087410
    10  H    1.084061   2.171753   3.434717   3.882104   3.403248
    11  C    5.026172   3.988223   3.138118   3.640160   4.751535
    12  C    4.882046   3.700394   2.567106   3.123889   4.456196
    13  C    6.089294   4.936065   3.673614   3.941563   5.307889
    14  C    7.180504   6.089516   4.851684   4.970608   6.251843
    15  C    7.289602   6.278871   5.187050   5.320727   6.475920
    16  C    6.307897   5.352870   4.461583   4.736962   5.789911
    17  H    6.373275   5.217907   3.930490   4.156852   5.530293
    18  H    6.712756   5.876804   5.158805   5.416507   6.310342
    19  H    4.384769   3.447000   2.954277   3.601596   4.506905
    20  C    3.976733   2.695607   1.629921   2.586652   3.900915
    21  H    4.516032   3.295073   2.197405   2.908728   4.238037
    22  H    4.107082   2.714733   2.182414   3.436391   4.617403
    23  O    2.383778   3.670186   4.217216   3.721143   2.458089
    24  O    8.368357   7.282105   5.982495   5.987471   7.260659
    25  H    9.110641   8.053253   6.774334   6.737992   7.962582
    26  H    8.286601   7.319773   6.243041   6.300834   7.394964
    27  H    3.224859   4.397583   4.704723   3.932480   2.545382
                    6          7          8          9         10
     6  C    0.000000
     7  H    3.394167   0.000000
     8  H    3.400249   4.302726   0.000000
     9  H    2.164897   4.965747   2.473524   0.000000
    10  H    2.145417   2.493544   4.968329   4.300462   0.000000
    11  C    5.341948   4.193681   3.580615   5.418602   5.848906
    12  C    5.181560   3.946672   2.925023   5.142319   5.795740
    13  C    6.236959   5.214339   3.383262   5.816407   7.052671
    14  C    7.243454   6.374047   4.305935   6.635452   8.141201
    15  C    7.369382   6.539646   4.785623   6.861557   8.189287
    16  C    6.492571   5.572644   4.463301   6.292507   7.127940
    17  H    6.496738   5.498319   3.537606   6.005331   7.347269
    18  H    6.901959   6.064062   5.237473   6.786389   7.445882
    19  H    4.836561   3.585981   3.842681   5.271650   5.092544
    20  C    4.441880   2.904650   2.724884   4.744235   4.863229
    21  H    4.886642   3.516536   2.850453   4.991858   5.415514
    22  H    4.877384   2.490051   3.760103   5.563281   4.812526
    23  O    1.400304   4.531150   4.602344   2.718211   2.576829
    24  O    8.352472   7.582889   5.182062   7.533139   9.359427
    25  H    9.064333   8.353576   5.921466   8.184314  10.094590
    26  H    8.314234   7.581829   5.716107   7.698908   9.176003
    27  H    1.989791   5.340053   4.645139   2.389314   3.539562
                   11         12         13         14         15
    11  C    0.000000
    12  C    1.409688   0.000000
    13  C    2.421996   1.401019   0.000000
    14  C    2.790534   2.428954   1.399916   0.000000
    15  C    2.433721   2.824419   2.434221   1.398054   0.000000
    16  C    1.397546   2.434548   2.793980   2.411342   1.402984
    17  H    3.416365   2.170515   1.085080   2.143012   3.404368
    18  H    2.155512   3.417828   3.879857   3.394846   2.154690
    19  H    1.085672   2.163953   3.406354   3.876166   3.415500
    20  C    2.355770   1.300000   2.342689   3.614481   4.124295
    21  H    3.269884   1.950615   2.361257   3.758931   4.590782
    22  H    2.675527   1.957400   3.024388   4.205597   4.593840
    23  O    6.616856   6.550873   7.593347   8.548359   8.609163
    24  O    4.188980   3.676269   2.379256   1.400109   2.455801
    25  H    4.682380   4.410751   3.222614   1.989497   2.543834
    26  H    3.419044   3.911436   3.420813   2.165096   1.087017
    27  H    6.983163   6.903475   7.834284   8.718940   8.792088
                   16         17         18         19         20
    16  C    0.000000
    17  H    3.878706   0.000000
    18  H    1.085877   4.964551   0.000000
    19  H    2.156335   4.318589   2.482299   0.000000
    20  C    3.622483   2.623862   4.505995   2.617796   0.000000
    21  H    4.383928   2.150531   5.360571   3.686149   1.098651
    22  H    3.961998   3.315347   4.738933   2.703613   1.098722
    23  O    7.698373   7.853255   8.006838   6.044364   5.841391
    24  O    3.716258   2.559348   4.603197   5.274489   4.721816
    25  H    3.932834   3.523205   4.653300   5.754684   5.546775
    26  H    2.167242   4.299799   2.487178   4.313408   5.211301
    27  H    7.967155   8.073445   8.277217   6.502993   6.294398
                   21         22         23         24         25
    21  H    0.000000
    22  H    1.755215   0.000000
    23  O    6.269476   6.245492   0.000000
    24  O    4.602329   5.331102   9.644277   0.000000
    25  H    5.520024   6.123130  10.325368   0.976108   0.000000
    26  H    5.654516   5.657133   9.506691   2.720621   2.392765
    27  H    6.665519   6.828599   0.976135   9.744155  10.395205
                   26         27
    26  H    0.000000
    27  H    9.641525   0.000000
 Symmetry turned off by external request.
 Stoichiometry    C13H12O2
 Framework group  C1[X(C13H12O2)]
 Deg. of freedom    75
 Full point group                 C1      NOp   1
 Rotational constants (GHZ):           1.6335750           0.2540248           0.2518247
 Standard basis: 6-31++G(d,p) (6D, 7F)
   357 basis functions,   576 primitive gaussians,   357 cartesian basis functions
    53 alpha electrons       53 beta electrons
       nuclear repulsion energy       884.8785615070 Hartrees.
 NAtoms=   27 NActive=   27 NUniq=   27 SFac= 1.00D+00 NAtFMM=   60 NAOKFM=F Big=F
 Integral buffers will be    131072 words long.
 Raffenetti 2 integral format.
 Two-electron integral symmetry is turned off.
 One-electron integrals computed using PRISM.
 NBasis=   357 RedAO= T EigKep=  1.03D-06  NBF=   357
 NBsUse=   356 1.00D-06 EigRej=  6.98D-07 NBFU=   356
 Initial guess from the checkpoint file:  "C:\Users\Administrator\Desktop\dataset_dft\C12H8O1\C12H8O1.chk"
 B after Tr=    -0.003704    0.007710   -0.009988
         Rot=    1.000000    0.000593    0.000206    0.000469 Ang=   0.09 deg.
 ExpMin= 3.60D-02 ExpMax= 5.48D+03 ExpMxC= 8.25D+02 IAcc=3 IRadAn=         5 AccDes= 0.00D+00
 Harris functional with IExCor=  402 and IRadAn=       5 diagonalized for initial guess.
[...]
    24  O    3.716258   2.559348   4.603197   5.274489   6.143486
    25  H    3.932834   3.523205   4.653300   5.754684   7.023472
    26  H    2.167242   4.299799   2.487178   4.313408   6.811206
    27  H    7.967155   8.073445   8.277217   6.502993   5.862243
                   21         22         23         24         25
    21  H    0.000000
    22  H    1.755215   0.000000
    23  O    5.851724   5.828804   0.000000
    24  O    6.143751   6.709496   9.644277   0.000000
    25  H    7.081701   7.563398  10.325368   0.976108   0.000000
    26  H    7.233656   7.237944   9.506691   2.720621   2.392765
    27  H    6.347673   6.521197   0.976135   9.744155  10.395205
                   26         27
    26  H    0.000000
    27  H    9.641525   0.000000
 Symmetry turned off by external request.
 Stoichiometry    C13H12O2
 Framework group  C1[X(C13H12O2)]
 Deg. of freedom    75
 Full point group                 C1      NOp   1
 Rotational constants (GHZ):           1.3972918           0.2508612           0.2461029
 Standard basis: 6-31++G(d,p) (6D, 7F)
   357 basis functions,   576 primitive gaussians,   357 cartesian basis functions
    53 alpha electrons       53 beta electrons
       nuclear repulsion energy       864.3475574482 Hartrees.
 NAtoms=   27 NActive=   27 NUniq=   27 SFac= 1.00D+00 NAtFMM=   60 NAOKFM=F Big=F
 Integral buffers will be    131072 words long.
 Raffenetti 2 integral format.
 Two-electron integral symmetry is turned off.
 One-electron integrals computed using PRISM.
 NBasis=   357 RedAO= T EigKep=  1.22D-06  NBF=   357
 NBsUse=   356 1.00D-06 EigRej=  7.90D-07 NBFU=   356
 Initial guess from the checkpoint file:  "C:\Users\Administrator\Desktop\dataset_dft\C12H8O1\C12H8O1.chk"
 B after Tr=    -0.004074    0.007520   -0.009675
         Rot=    1.000000    0.000555    0.000213    0.000392 Ang=   0.08 deg.
 ExpMin= 3.60D-02 ExpMax= 5.48D+03 ExpMxC= 8.25D+02 IAcc=3 IRadAn=         5 AccDes= 0.00D+00
 Harris functional with IExCor=  402 and IRadAn=       5 diagonalized for initial guess.
 HarFok:  IExCor=  402 AccDes= 0.00D+00 IRadAn=         5 IDoV= 1 UseB2=F ITyADJ=14
 ICtDFT=  3500011 ScaDFX=  1.000000  1.000000  1.000000  1.000000
 FoFCou: FMM=F IPFlag=           0 FMFlag=      100000 FMFlg1=           0
         NFxFlg=           0 DoJE=T BraDBF=F KetDBF=T FulRan=T
         wScrn=  0.000000 ICntrl=       500 IOpCl=  0 I1Cent=   200000004 NGrid=           0
         NMat0=    1 NMatS0=      1 NMatT0=    0 NMatD0=    1 NMtDS0=    0 NMtDT0=    0
 Symmetry not used in FoFCou.
 Requested convergence on RMS density matrix=1.00D-08 within 128 cycles.
 Requested convergence on MAX density matrix=1.00D-06.
 Requested convergence on             energy=1.00D-06.
 No special actions if energy rises.
 SCF Done:  E(RB3LYP) =  -652.833331333     A.U. after   16 cycles
            NFock= 16  Conv=0.38D-08     -V/T= 2.0099
 Variable Step   Value    
 -------- ---- -----------
    19      20    5.669178
 ---------------------------------------------------------------------------------------------------
                            Z-MATRIX (ANGSTROMS AND DEGREES)
   CD    Cent   Atom    N1       Length/X        N2       Alpha/Y        N3        Beta/Z          J
 ---------------------------------------------------------------------------------------------------
      1      1  C 
      2      2  C        1   1.399098(     1)
      3      3  C        2   1.406173(     2)      1  121.479(    27)
      4      4  C        3   1.406008(     3)      2  118.041(    28)      1   -0.083(    52)      0
      5      5  C        4   1.399168(     4)      3  121.164(    29)      2    0.145(    53)      0
      6      6  C        1   1.396843(     5)      2  119.347(    30)      3   -0.025(    54)      0
      7      7  H        2   1.086914(     6)      1  119.081(    31)      6  179.918(    55)      0
      8      8  H        4   1.086361(     7)      3  119.622(    32)      2 -179.382(    56)      0
      9      9  H        5   1.087410(     8)      4  120.026(    33)      3  179.975(    57)      0
     10     10  H        1   1.084061(     9)      6  119.177(    34)      5 -179.870(    58)      0
     11     11  C        3   3.138118(    10)      2  117.542(    35)      1 -119.048(    59)      0
     12     12  C       11   1.409688(    11)      3   53.643(    36)      2 -138.843(    60)      0
     13     13  C       12   1.401019(    12)     11  119.016(    37)      3 -153.773(    61)      0
     14     14  C       13   1.399916(    13)     12  120.268(    38)     11   -0.107(    62)      0
     15     15  C       14   1.398054(    14)     13  120.916(    39)     12   -0.037(    63)      0
     16     16  C       11   1.397546(    15)      3  157.520(    40)      2  139.290(    64)      0
     17     17  H       13   1.085080(    16)     12  121.109(    41)     11 -179.925(    65)      0
     18     18  H       16   1.085877(    17)     11  119.922(    42)      3 -112.745(    66)      0
     19     19  H       11   1.085672(    18)      3   70.284(    43)      2   17.709(    67)      0
     20     20  C       12   3.000000(    19)     11  120.722(    44)      3   27.182(    68)      0
     21     21  H       20   1.098651(    20)     12  108.531(    45)     11 -179.568(    69)      0
     22     22  H       20   1.098722(    21)     12  109.089(    46)     11   65.336(    70)      0
     23     23  O        6   1.400304(    22)      1  116.907(    47)      2  179.957(    71)      0
     24     24  O       14   1.400109(    23)     13  116.364(    48)     12  179.869(    72)      0
     25     25  H       24   0.976108(    24)     14  112.478(    49)     13  179.568(    73)      0
     26     26  H       15   1.087017(    25)     14  120.694(    50)     13 -179.998(    74)      0
     27     27  H       23   0.976135(    26)      6  112.487(    51)      1  179.994(    75)      0
 ---------------------------------------------------------------------------------------------------
                         Z-Matrix orientation:                         
 ---------------------------------------------------------------------
 Center     Atomic      Atomic             Coordinates (Angstroms)
 Number     Number       Type             X           Y           Z
 ---------------------------------------------------------------------
      1          6           0        0.000000    0.000000    0.000000
      2          6           0        0.000000    0.000000    1.399098
      3          6           0        1.199224    0.000000    2.133390
      4          6           0        2.410940   -0.001806    1.420228
      5          6           0        2.427655   -0.000528    0.021161
      6          6           0        1.217582    0.000540   -0.684590
      7          1           0       -0.949889    0.000936    1.927389
      8          1           0        3.352681   -0.012033    1.961707
      9          1           0        3.375563   -0.001559   -0.511690
     10          1           0       -0.924555   -0.001299   -0.566025
     11          6           0        1.731215   -2.432489    4.043302
     12          6           0        1.995036   -1.076421    4.323831
     13          6           0        3.002294   -0.756175    5.243466
     14          6           0        3.731504   -1.771661    5.873392
     15          6           0        3.471332   -3.117932    5.600594
     16          6           0        2.463032   -3.438959    4.679380
     17          1           0        3.232871    0.276124    5.485521
     18          1           0        2.253435   -4.481720    4.460640
     19          1           0        0.960687   -2.693091    3.324235
     20          6           0        0.400748    1.098789    3.009788
     21          1           0        0.776088    2.068968    3.363208
     22          1           0       -0.642231    1.035063    3.349380
     23          8           0        1.157976   -0.000422   -2.083624
     24          8           0        4.720198   -1.359516    6.775016
     25          1           0        5.187865   -2.111577    7.185477
     26          1           0        4.039758   -3.903539    6.091838
     27          1           0        2.043185    0.000126   -2.495017
 ---------------------------------------------------------------------
                    Distance matrix (angstroms):
                    1          2          3          4          5
     1  C    0.000000
     2  C    1.399098   0.000000
     3  C    2.447343   1.406173   0.000000
     4  C    2.798157   2.411033   1.406008   0.000000
     5  C    2.427747   2.791454   2.443472   1.399168   0.000000
     6  C    1.396843   2.413351   2.818039   2.419580   1.400843
     7  H    2.148748   1.086914   2.158963   3.398880   3.878338
     8  H    3.884444   3.399580   2.160324   1.086361   2.149773
     9  H    3.414126   3.878858   3.425332   2.159353   1.087410
    10  H    1.084061   2.171753   3.434717   3.882104   3.403248
    11  C    5.026172   3.988223   3.138118   3.640160   4.751535
    12  C    4.882046   3.700394   2.567106   3.123889   4.456196
    13  C    6.089294   4.936065   3.673614   3.941563   5.307889
    14  C    7.180504   6.089516   4.851684   4.970608   6.251843
    15  C    7.289602   6.278871   5.187050   5.320727   6.475920
    16  C    6.307897   5.352870   4.461583   4.736962   5.789911
    17  H    6.373275   5.217907   3.930490   4.156852   5.530293
    18  H    6.712756   5.876804   5.158805   5.416507   6.310342
    19  H    4.384769   3.447000   2.954277   3.601596   4.506905
    20  C    3.229049   1.990542   1.616469   2.789064   3.774750
    21  H    4.024190   2.956462   2.443793   3.276585   4.263773
    22  H    3.564009   2.299438   2.437405   3.757469   4.644748
    23  O    2.383778   3.670186   4.217216   3.721143   2.458089
    24  O    8.368357   7.282105   5.982495   5.987471   7.260659
    25  H    9.110641   8.053253   6.774334   6.737992   7.962582
    26  H    8.286601   7.319773   6.243041   6.300834   7.394964
    27  H    3.224859   4.397583   4.704723   3.932480   2.545382
                    6          7          8          9         10
     6  C    0.000000
     7  H    3.394167   0.000000
     8  H    3.400249   4.302726   0.000000
     9  H    2.164897   4.965747   2.473524   0.000000
    10  H    2.145417   2.493544   4.968329   4.300462   0.000000
    11  C    5.341948   4.193681   3.580615   5.418602   5.848906
    12  C    5.181560   3.946672   2.925023   5.142319   5.795740
    13  C    6.236959   5.214339   3.383262   5.816407   7.052671
    14  C    7.243454   6.374047   4.305935   6.635452   8.141201
    15  C    7.369382   6.539646   4.785623   6.861557   8.189287
    16  C    6.492571   5.572644   4.463301   6.292507   7.127940
    17  H    6.496738   5.498319   3.537606   6.005331   7.347269
    18  H    6.901959   6.064062   5.237473   6.786389   7.445882
    19  H    4.836561   3.585981   3.842681   5.271650   5.092544
    20  C    3.939771   2.049656   3.323599   4.739314   3.969013
    21  H    4.567054   3.052430   3.596332   5.104820   4.755740
    22  H    4.560927   1.784973   4.356761   5.667902   4.060068
    23  O    1.400304   4.531150   4.602344   2.718211   2.576829
    24  O    8.352472   7.582889   5.182062   7.533139   9.359427
    25  H    9.064333   8.353576   5.921466   8.184314  10.094590
    26  H    8.314234   7.581829   5.716107   7.698908   9.176003
    27  H    1.989791   5.340053   4.645139   2.389314   3.539562
                   11         12         13         14         15
    11  C    0.000000
    12  C    1.409688   0.000000
    13  C    2.421996   1.401019   0.000000
    14  C    2.790534   2.428954   1.399916   0.000000
    15  C    2.433721   2.824419   2.434221   1.398054   0.000000
    16  C    1.397546   2.434548   2.793980   2.411342   1.402984
    17  H    3.416365   2.170515   1.085080   2.143012   3.404368
    18  H    2.155512   3.417828   3.879857   3.394846   2.154690
    19  H    1.085672   2.163953   3.406354   3.876166   3.415500
    20  C    3.912571   3.000000   3.898493   5.247251   5.824216
    21  H    4.651657   3.507436   4.058669   5.457649   6.258927
    22  H    4.258954   3.516120   4.480921   5.777360   6.263923
    23  O    6.616856   6.550873   7.593347   8.548359   8.609163
    24  O    4.188980   3.676269   2.379256   1.400109   2.455801
    25  H    4.682380   4.410751   3.222614   1.989497   2.543834
    26  H    3.419044   3.911436   3.420813   2.165096   1.087017
    27  H    6.983163   6.903475   7.834284   8.718940   8.792088
                   16         17         18         19         20
    16  C    0.000000
    17  H    3.878706   0.000000
    18  H    1.085877   4.964551   0.000000
    19  H    2.156335   4.318589   2.482299   0.000000
    20  C    5.256587   3.850577   6.056360   3.845875   0.000000
    21  H    5.908922   3.708676   6.804295   4.765795   1.098651
    22  H    5.606107   4.489488   6.328876   4.058215   1.098722
    23  O    7.698373   7.853255   8.006838   6.044364   5.265407
    24  O    3.716258   2.559348   4.603197   5.274489   6.235211
    25  H    3.932834   3.523205   4.653300   5.754684   7.117536
    26  H    2.167242   4.299799   2.487178   4.313408   6.911201
    27  H    7.967155   8.073445   8.277217   6.502993   5.848721
                   21         22         23         24         25
    21  H    0.000000
    22  H    1.755215   0.000000
    23  O    5.839194   5.816400   0.000000
    24  O    6.241069   6.798870   9.644277   0.000000
    25  H    7.179866   7.655521  10.325368   0.976108   0.000000
    26  H    7.332653   7.337021   9.506691   2.720621   2.392765
    27  H    6.340697   6.514563   0.976135   9.744155  10.395205
                   26         27
    26  H    0.000000
    27  H    9.641525   0.000000
 Symmetry turned off by external request.
 Stoichiometry    C13H12O2
 Framework group  C1[X(C13H12O2)]
 Deg. of freedom    75
 Full point group                 C1      NOp   1
 Rotational constants (GHZ):           1.3819958           0.2505979           0.2453782
 Standard basis: 6-31++G(d,p) (6D, 7F)
   357 basis functions,   576 primitive gaussians,   357 cartesian basis functions
    53 alpha electrons       53 beta electrons
       nuclear repulsion energy       862.9201620100 Hartrees.
 NAtoms=   27 NActive=   27 NUniq=   27 SFac= 1.00D+00 NAtFMM=   60 NAOKFM=F Big=F
 Integral buffers will be    131072 words long.
 Raffenetti 2 integral format.
 Two-electron integral symmetry is turned off.
 One-electron integrals computed using PRISM.
 NBasis=   357 RedAO= T EigKep=  1.21D-06  NBF=   357
 NBsUse=   356 1.00D-06 EigRej=  7.90D-07 NBFU=   356
 Initial guess from the checkpoint file:  "C:\Users\Administrator\Desktop\dataset_dft\C12H8O1\C12H8O1.chk"
 B after Tr=    -0.004101    0.007512   -0.009652
         Rot=    1.000000    0.000552    0.000213    0.000387 Ang=   0.08 deg.
 ExpMin= 3.60D-02 ExpMax= 5.48D+03 ExpMxC= 8.25D+02 IAcc=3 IRadAn=         5 AccDes= 0.00D+00
 Harris functional with IExCor=  402 and IRadAn=       5 diagonalized for initial guess.
 HarFok:  IExCor=  402 AccDes= 0.00D+00 IRadAn=         5 IDoV= 1 UseB2=F ITyADJ=14
 ICtDFT=  3500011 ScaDFX=  1.000000  1.000000  1.000000  1.000000
 FoFCou: FMM=F IPFlag=           0 FMFlag=      100000 FMFlg1=           0
         NFxFlg=           0 DoJE=T BraDBF=F KetDBF=T FulRan=T
         wScrn=  0.000000 ICntrl=       500 IOpCl=  0 I1Cent=   200000004 NGrid=           0
         NMat0=    1 NMatS0=      1 NMatT0=    0 NMatD0=    1 NMtDS0=    0 NMtDT0=    0
 Symmetry not used in FoFCou.
 Requested convergence on RMS density matrix=1.00D-08 within 128 cycles.
 Requested convergence on MAX density matrix=1.00D-06.
 Requested convergence on             energy=1.00D-06.
 No special actions if energy rises.
 SCF Done:  E(RB3LYP) =  -652.813129732     A.U. after   16 cycles
            NFock= 16  Conv=0.67D-08     -V/T= 2.0100
 Scan completed.
 
 Summary of the potential surface scan:
   N      B19         SCF    
 ----  ---------  -----------
    1     1.0000   -652.68080
    2     1.1000   -652.87839
    3     1.2000   -652.99423
    4     1.3000   -653.05885
    5     1.4000   -653.09078
    6     1.5000   -653.10154
    7     1.6000   -653.09841
    8     1.7000   -653.08615
    9     1.8000   -653.06807
   10     1.9000   -653.04656
   11     2.0000   -653.02340
   12     2.1000   -652.99990
   13     2.2000   -652.97689
   14     2.3000   -652.95480
   15     2.4000   -652.93368
   16     2.5000   -652.91331
   17     2.6000   -652.89336
   18     2.7000   -652.87350
   19     2.8000   -652.85350
   20     2.9000   -652.83333
   21     3.0000   -652.81313
 ----  ---------  -----------
  
 1|1|UNPC-BF-202112021916|Scan|RB3LYP|6-31++G(d,p)|C13H12O2|ADMINISTRAT
 OR|22-Mar-2023|1||# scan b3lyp/6-31++g(d,p) nosymm||Title Card Require
 d||0,1|C|C,1,B1|C,2,B2,1,A1|C,3,B3,2,A2,1,D1,0|C,4,B4,3,A3,2,D2,0|C,1,
 B5,2,A4,3,D3,0|H,2,B6,1,A5,6,D4,0|H,4,B7,3,A6,2,D5,0|H,5,B8,4,A7,3,D6,
 0|H,1,B9,6,A8,5,D7,0|C,3,B10,2,A9,1,D8,0|C,11,B11,3,A10,2,D9,0|C,12,B1
 2,11,A11,3,D10,0|C,13,B13,12,A12,11,D11,0|C,14,B14,13,A13,12,D12,0|C,1
 1,B15,3,A14,2,D13,0|H,13,B16,12,A15,11,D14,0|H,16,B17,11,A16,3,D15,0|H
 ,11,B18,3,A17,2,D16,0|C,12,B19,11,A18,3,D17,0|H,20,B20,12,A19,11,D18,0
 |H,20,B21,12,A20,11,D19,0|O,6,B22,1,A21,2,D20,0|O,14,B23,13,A22,12,D21
 ,0|H,24,B24,14,A23,13,D22,0|H,15,B25,14,A24,13,D23,0|H,23,B26,6,A25,1,
 D24,0||B1=1.39909786|B2=1.40617268|B3=1.40600776|B4=1.39916814|B5=1.39
 684307|B6=1.08691367|B7=1.08636102|B8=1.08741012|B9=1.08406123|B10=3.1
 3811798|B11=1.40968776|B12=1.4010186|B13=1.39991589|B14=1.3980536|B15=
 1.39754563|B16=1.08508008|B17=1.08587699|B18=1.08567209|B19=1.,s,20,0.
 1|B20=1.09865091|B21=1.09872165|B22=1.40030379|B23=1.40010916|B24=0.97
 610754|B25=1.08701729|B26=0.97613495|A1=121.47937897|A2=118.04145961|A
 3=121.16350198|A4=119.34702314|A5=119.08110177|A6=119.62235255|A7=120.
 02618152|A8=119.17746713|A9=117.54150214|A10=53.64282897|A11=119.01648
 927|A12=120.26837256|A13=120.9162237|A14=157.51972874|A15=121.10875315
 |A16=119.92171402|A17=70.28417703|A18=120.72174062|A19=108.53142083|A2
 0=109.08876855|A21=116.90736758|A22=116.36393924|A23=112.47761822|A24=
 120.69406148|A25=112.4865712|D1=-0.08336761|D2=0.14483452|D3=-0.025399
 69|D4=179.91814889|D5=-179.38214824|D6=179.97535734|D7=-179.87009629|D
 8=-119.0481731|D9=-138.84342037|D10=-153.77296264|D11=-0.10675148|D12=
 -0.0373659|D13=139.2898462|D14=-179.92488399|D15=-112.74525369|D16=17.
 709109|D17=27.18217674|D18=-179.56814961|D19=65.33561897|D20=179.95709
 245|D21=179.86887266|D22=179.56841719|D23=-179.99802962|D24=179.993687
 28||Version=EM64W-G16RevA.03|HF=-652.6808009,-652.8783883,-652.9942279
 ,-653.0588473,-653.090776,-653.1015401,-653.0984098,-653.0861545,-653.
 0680716,-653.0465584,-653.0234025,-652.9999001,-652.9768942,-652.95480
 34,-652.9336798,-652.9133127,-652.893363,-652.8734995,-652.853504,-652
 .8333313,-652.8131297|RMSD=5.862e-009,6.589e-009,4.134e-009,6.119e-009
 ,4.452e-009,3.572e-009,9.486e-009,8.260e-009,2.754e-009,3.049e-009,3.7
 45e-009,4.829e-009,6.361e-009,2.208e-009,2.382e-009,3.821e-009,5.385e-
 009,5.999e-009,9.341e-009,3.754e-009,6.699e-009|PG=C01 [X(C13H12O2)]||
 @


     ON THE SURVIVAL OF THE FITTEST -
 "STRONG REPRESENTATIVES FROM EACH PAST ERA THRIVE TODAY,
 SUCH AS PROGRAMMING IN THE THIRTY YEAR OLD LANGUAGE KNOWN
 AS FORTRAN, AND EVEN IN THE ANCIENT SCRIPT KNOWN AS DIRECT
 MACHINE CODE. SOME PEOPLE MIGHT LOOK ON SUCH RELICS AS LIVING
 FOSSILS; OTHERS WOULD POINT OUT THAT EVEN A VERY OLD SPECIES
 MIGHT STILL BE FILLING A PARTICULAR ECOLOGICAL NICHE."
     -- ALAN KAY, SCI.AM. SEPTEMBER 1984
 Job cpu time:       0 days  0 hours 29 minutes 15.0 seconds.
 Elapsed time:       0 days  0 hours 28 minutes 51.7 seconds.
 File lengths (MBytes):  RWF=     81 Int=      0 D2E=      0 Chk=     15 Scr=      1
 Normal termination of Gaussian 16 at Wed Mar 22 23:35:01 2023.
