 Entering Link 1 = I:\G16W\l1.exe PID=     19696.
  
 Copyright (c) 1988,1990,1992,1993,1995,1998,2003,2009,2016,
            Gaussian, Inc.  All Rights Reserved.
  
 This is part of the Gaussian(R) 16 program.  It is based on
 the Gaussian(R) 09 system (copyright 2009, Gaussian, Inc.),
 the Gaussian(R) 03 system (copyright 2003, Gaussian, Inc.),
 the Gaussian(R) 98 system (copyright 1998, Gaussian, Inc.),
 the Gaussian(R) 94 system (copyright 1995, Gaussian, Inc.),
 the Gaussian 92(TM) system (copyright 1992, Gaussian, Inc.),
 the Gaussian 90(TM) system (copyright 1990, Gaussian, Inc.),
 the Gaussian 88(TM) system (copyright 1988, Gaussian, Inc.),
 the Gaussian 86(TM) system (copyright 1986, Carnegie Mellon
 University), and the Gaussian 82(TM) system (copyright 1983,
 Carnegie Mellon University). Gaussian is a federally registered
 trademark of Gaussian, Inc.
  
 This software contains proprietary and confidential information,
 including trade secrets, belonging to Gaussian, Inc.
  
 This software is provided under written license and may be
 used, copied, transmitted, or stored only in accord with that
 written license.
  
 The following legend is applicable only to US Government
 contracts under FAR:
  
                    RESTRICTED RIGHTS LEGEND
  
 Use, reproduction and disclosure by the US Government is
 subject to restrictions as set forth in subparagraphs (a)
 and (c) of the Commercial Computer Software - Restricted
 Rights clause in FAR 52.227-19.
  
 Gaussian, Inc.
 340 Quinnipiac St., Bldg. 40, Wallingford CT 06492
  
  
 ---------------------------------------------------------------
 Warning -- This program may not be used in any manner that
 competes with the business of Gaussian, Inc. or will provide
 assistance to any competitor of Gaussian, Inc.  The licensee
 of this program is prohibited from giving any competitor of
 Gaussian, Inc. access to this program.  By using this program,
 the user acknowledges that Gaussian, Inc. is engaged in the
 business of creating and licensing software in the field of
 computational chemistry and represents and warrants to the
 licensee that it is not a competitor of Gaussian, Inc. and that
 it will not use this program in any manner prohibited above.
 ---------------------------------------------------------------
  

 Cite this work as:
 Gaussian 16, Revision A.03,
 M. J. Frisch, G. W. Trucks, H. B. Schlegel, G. E. Scuseria, 
 M. A. Robb, J. R. Cheeseman, G. Scalmani, V. Barone, 
 G. A. Petersson, H. Nakatsuji, X. Li, M. Caricato, A. V. Marenich, 
 J. Bloino, B. G. Janesko, R. Gomperts, B. Mennucci, H. P. Hratchian, 
 J. V. Ortiz, A. F. Izmaylov, J. L. Sonnenberg, D. Williams-Young, 
 F. Ding, F. Lipparini, F. Egidi, J. Goings, B. Peng, A. Petrone, 
 T. Henderson, D. Ranasinghe, V. G. Zakrzewski, J. Gao, N. Rega, 
 G. Zheng, W. Liang, M. Hada, M. Ehara, K. Toyota, R. Fukuda, 
 J. Hasegawa, M. Ishida, T. Nakajima, Y. Honda, O. Kitao, H. Nakai, 
 T. Vreven, K. Throssell, J. A. Montgomery, Jr., J. E. Peralta, 
 F. Ogliaro, M. J. Bearpark, J. J. Heyd, E. N. Brothers, K. N. Kudin, 
 V. N. Staroverov, T. A. Keith, R. Kobayashi, J. Normand, 
 K. Raghavachari, A. P. Rendell, J. C. Burant, S. S. Iyengar, 
 J. Tomasi, M. Cossi, J. M. Millam, M. Klene, C. Adamo, R. Cammi, 
 J. W. Ochterski, R. L. Martin, K. Morokuma, O. Farkas, 
 J. B. Foresman, and D. J. Fox, Gaussian, Inc., Wallingford CT, 2016.
 
 ******************************************
 Gaussian 16:  EM64W-G16RevA.03 17-Dec-2016
                22-Mar-2023 
 ******************************************
 %nprocshared=24
 Will use up to   24 processors via shared memory.
 %mem=300MW
 %chk=C:\Users\Administrator\Desktop\dataset_dft\C12H8O1\C12H8O1.chk
 --------------------------------
 # scan b3lyp/6-31++g(d,p) nosymm
 --------------------------------
 1/38=1,60=1,172=1/1,8;
 2/12=2,15=1,17=6,18=5,29=3,40=1/2;
 3/5=1,6=6,7=1111,11=2,25=1,30=1,74=-5/1,2,3;
 4//1;
 5/5=2,38=5/2;
 6/7=2,8=2,9=2,10=2,18=1,28=1/1;
 1/60=1/8(1);
 99/9=1/99;
 2/15=1,29=3/2;
 3/5=1,6=6,7=1111,11=2,25=1,30=1,74=-5/1,2,3;
 4/5=5,16=3,69=1/1;
 5/5=2,38=5/2;
 1/60=1/8(-4);
 99/9=1/99;
 -------------------
 Title Card Required
 -------------------
 Symbolic Z-matrix:
 Charge =  0 Multiplicity = 1
 C(PDBName=C,ResName=MOL,ResNum=1)
 C(PDBName=C,ResName=MOL,ResNum=1) 1    B1
 C(PDBName=C,ResName=MOL,ResNum=1) 2    B2       1    A1
 C(PDBName=C,ResName=MOL,ResNum=1) 3    B3       2    A2       1    D1       0
 C(PDBName=C,ResName=MOL,ResNum=1) 4    B4       3    A3       2    D2       0
 C(PDBName=C,ResName=MOL,ResNum=1) 1    B5       2    A4       3    D3       0
 H(PDBName=H,ResName=MOL,ResNum=1) 2    B6       1    A5       6    D4       0
 H(PDBName=H,ResName=MOL,ResNum=1) 4    B7       3    A6       2    D5       0
 H(PDBName=H,ResName=MOL,ResNum=1) 5    B8       4    A7       3    D6       0
 H(PDBName=H,ResName=MOL,ResNum=1) 6    B9       1    A8       2    D7       0
 C(PDBName=C,ResName=MOL,ResNum=1) 3    B10      2    A9       1    D8       0
 C(PDBName=C,ResName=MOL,ResNum=1) 11   B11      3    A10      2    D9       0
 C(PDBName=C,ResName=MOL,ResNum=1) 12   B12      11   A11      3    D10      0
 C(PDBName=C,ResName=MOL,ResNum=1) 13   B13      12   A12      11   D11      0
 C(PDBName=C,ResName=MOL,ResNum=1) 14   B14      13   A13      12   D12      0
 C(PDBName=C,ResName=MOL,ResNum=1) 11   B15      3    A14      2    D13      0
 H(PDBName=H,ResName=MOL,ResNum=1) 11   B16      3    A15      2    D14      0
 H(PDBName=H,ResName=MOL,ResNum=1) 13   B17      12   A16      11   D15      0
 H(PDBName=H,ResName=MOL,ResNum=1) 15   B18      14   A17      13   D16      0
 H(PDBName=H,ResName=MOL,ResNum=1) 16   B19      11   A18      3    D17      0
 O(PDBName=O,ResName=MOL,ResNum=1) 1    B20      2    A19      3    D18      0
 H(PDBName=H,ResName=MOL,ResNum=1) 21   B21      1    A20      2    D19      0
 O(PDBName=O,ResName=MOL,ResNum=1) 14   B22      13   A21      12   D20      0
 H(PDBName=H,ResName=MOL,ResNum=1) 23   B23      14   A22      13   D21      0
       Variables:
  B1                    1.39684                  
  B2                    1.40566                  
  B3                    1.41179                  
  B4                    1.39785                  
  B5                    1.39975                  
  B6                    1.08377                  
  B7                    1.08469                  
  B8                    1.08572                  
  B9                    1.0869                   
  B10                   1.     Scan 20    0.1    
  B11                   1.41178                  
  B12                   1.40566                  
  B13                   1.39684                  
  B14                   1.39974                  
  B15                   1.39785                  
  B16                   1.08469                  
  B17                   1.08377                  
  B18                   1.0869                   
  B19                   1.08572                  
  B20                   1.39927                  
  B21                   0.97606                  
  B22                   1.39927                  
  B23                   0.97606                  
  A1                  120.23924                  
  A2                  118.79555                  
  A3                  120.38119                  
  A4                  121.07396                  
  A5                  118.56101                  
  A6                  119.77543                  
  A7                  119.8298                   
  A8                  120.67782                  
  A9                  140.29771                  
  A10                  30.48552                  
  A11                 118.79549                  
  A12                 120.23917                  
  A13                 121.07428                  
  A14                 150.86674                  
  A15                  89.30036                  
  A16                 121.17852                  
  A17                 120.67759                  
  A18                 119.82973                  
  A19                 116.3422                   
  A20                 112.54209                  
  A21                 116.3426                   
  A22                 112.54228                  
  D1                    0.07287                  
  D2                   -0.12157                  
  D3                    0.03262                  
  D4                 -178.30756                  
  D5                  178.22808                  
  D6                  179.45254                  
  D7                  179.98669                  
  D8                 -152.1728                   
  D9                  -56.90229                  
  D10                 179.89453                  
  D11                   0.06188                  
  D12                   0.02845                  
  D13                 -56.90496                  
  D14                 121.65929                  
  D15                 178.36768                  
  D16                 179.94282                  
  D17                 179.46522                  
  D18                 179.59313                  
  D19                -179.2871                   
  D20                 179.58659                  
  D21                -179.32488                  
 
 Center=      0.72473099      0.29792637      2.18363592
 Residue   1 PDB Number     1_0 MOL charge    0.00000000 layers R        AvRTP=      0.00000000      0.00000000    180.00000000
 Scan the potential surface.
 Variable   Value     No. Steps Step-Size
 -------- ----------- --------- ---------
    10       1.000000      20      0.1000
 A total of     21 points will be computed.
 ---------------------------------------------------------------------------------------------------
                            Z-MATRIX (ANGSTROMS AND DEGREES)
   CD    Cent   Atom    N1       Length/X        N2       Alpha/Y        N3        Beta/Z          J
 ---------------------------------------------------------------------------------------------------
      1      1  C 
      2      2  C        1   1.396844(     1)
      3      3  C        2   1.405662(     2)      1  120.239(    24)
      4      4  C        3   1.411790(     3)      2  118.796(    25)      1    0.073(    46)      0
      5      5  C        4   1.397847(     4)      3  120.381(    26)      2   -0.122(    47)      0
      6      6  C        1   1.399746(     5)      2  121.074(    27)      3    0.033(    48)      0
      7      7  H        2   1.083774(     6)      1  118.561(    28)      6 -178.308(    49)      0
      8      8  H        4   1.084691(     7)      3  119.775(    29)      2  178.228(    50)      0
      9      9  H        5   1.085724(     8)      4  119.830(    30)      3  179.453(    51)      0
     10     10  H        6   1.086900(     9)      1  120.678(    31)      2  179.987(    52)      0
     11     11  C        3   1.000000(    10)      2  140.298(    32)      1 -152.173(    53)      0
     12     12  C       11   1.411782(    11)      3   30.486(    33)      2  -56.902(    54)      0
     13     13  C       12   1.405663(    12)     11  118.795(    34)      3  179.895(    55)      0
     14     14  C       13   1.396836(    13)     12  120.239(    35)     11    0.062(    56)      0
     15     15  C       14   1.399740(    14)     13  121.074(    36)     12    0.028(    57)      0
     16     16  C       11   1.397845(    15)      3  150.867(    37)      2  -56.905(    58)      0
     17     17  H       11   1.084690(    16)      3   89.300(    38)      2  121.659(    59)      0
     18     18  H       13   1.083774(    17)     12  121.179(    39)     11  178.368(    60)      0
     19     19  H       15   1.086898(    18)     14  120.678(    40)     13  179.943(    61)      0
     20     20  H       16   1.085724(    19)     11  119.830(    41)      3  179.465(    62)      0
     21     21  O        1   1.399266(    20)      2  116.342(    42)      3  179.593(    63)      0
     22     22  H       21   0.976065(    21)      1  112.542(    43)      2 -179.287(    64)      0
     23     23  O       14   1.399267(    22)     13  116.343(    44)     12  179.587(    65)      0
     24     24  H       23   0.976062(    23)     14  112.542(    45)     13 -179.325(    66)      0
 ---------------------------------------------------------------------------------------------------
                         Z-Matrix orientation:                         
 ---------------------------------------------------------------------
 Center     Atomic      Atomic             Coordinates (Angstroms)
 Number     Number       Type             X           Y           Z
 ---------------------------------------------------------------------
      1          6           0        0.000000    0.000000    0.000000
      2          6           0        0.000000    0.000000    1.396844
      3          6           0        1.214394    0.000000    2.104751
      4          6           0        2.424975    0.001573    1.378361
      5          6           0        2.410729    0.000541   -0.019413
      6          6           0        1.198885   -0.000682   -0.722471
      7          1           0       -0.951489   -0.027572    1.914990
      8          1           0        3.371026    0.030709    1.908165
      9          1           0        3.346990    0.010767   -0.569058
     10          1           0        1.191370   -0.000895   -1.809344
     11          6           0        1.594575   -0.298195    2.980275
     12          6           0        0.641124    0.454753    2.261158
     13          6           0       -0.307575    1.206006    2.976334
     14          6           0       -0.299220    1.203069    4.373142
     15          6           0        0.646226    0.458895    5.088410
     16          6           0        1.592347   -0.291553    4.378103
     17          1           0        2.315812   -0.906234    2.444870
     18          1           0       -1.040316    1.818389    2.463845
     19          1           0        0.647399    0.462003    6.175304
     20          1           0        2.324209   -0.880787    4.922141
     21          8           0       -1.253934   -0.008905   -0.620898
     22          1           0       -1.189198   -0.019662   -1.594754
     23          8           0       -1.273854    1.986110    5.001539
     24          1           0       -1.210932    1.951902    5.974970
 ---------------------------------------------------------------------
                    Distance matrix (angstroms):
                    1          2          3          4          5
     1  C    0.000000
     2  C    1.396844   0.000000
     3  C    2.429965   1.405662   0.000000
     4  C    2.789334   2.425046   1.411790   0.000000
     5  C    2.410808   2.795961   2.437887   1.397847   0.000000
     6  C    1.399746   2.434916   2.827264   2.432447   1.401020
     7  H    2.138522   1.083774   2.174354   3.418966   3.879074
     8  H    3.873739   3.409723   2.165792   1.084691   2.153749
     9  H    3.395038   3.881652   3.420137   2.154678   1.085724
    10  H    2.166354   3.420381   3.914163   3.418078   2.165801
    11  C    3.393174   2.266902   1.000000   1.829085   3.123056
    12  C    2.393883   1.168281   0.748266   2.041281   2.922125
    13  C    3.226084   2.010931   2.128496   3.386887   4.220998
    14  C    4.545468   3.224168   2.980603   4.222978   5.299475
    15  C    5.149768   3.775693   3.071745   4.139753   5.423414
    16  C    4.667800   3.392415   2.322925   3.126922   4.482546
    17  H    3.487353   2.698630   1.466310   1.404803   2.627535
    18  H    3.234088   2.351018   2.918767   4.060459   4.623943
    19  H    6.226311   4.844198   4.135738   5.136383   6.457306
    20  H    5.514092   4.313404   3.153595   3.653367   5.020277
    21  O    1.399266   2.375650   3.677212   4.187066   3.713709
    22  H    1.989427   3.219353   4.411800   4.679969   3.929578
    23  O    5.530165   4.308267   4.304345   5.545010   6.536711
    24  H    6.401292   5.122062   4.966963   6.176764   7.270273
                    6          7          8          9         10
     6  C    0.000000
     7  H    3.403091   0.000000
     8  H    3.411660   4.322913   0.000000
     9  H    2.153607   4.964764   2.477419   0.000000
    10  H    1.086900   4.296885   4.309498   2.486995   0.000000
    11  C    3.735694   2.773177   2.100804   3.970413   4.815746
    12  C    3.069293   1.699672   2.785100   3.940680   4.132720
    13  C    4.172131   1.750083   4.006796   5.230129   5.158116
    14  C    5.445971   2.825322   4.573975   6.256338   6.472598
    15  C    5.855167   3.586076   4.209732   6.285053   6.934523
    16  C    5.123989   3.550734   3.060743   5.257810   6.207235
    17  H    3.478447   3.424628   1.509765   3.314811   4.492476
    18  H    4.298330   1.927875   4.792131   5.631558   5.152704
    19  H    6.935237   4.576724   5.080614   7.278586   8.016532
    20  H    5.822592   4.527817   3.318239   5.656343   6.882618
    21  O    2.454935   2.553928   5.271431   4.601258   2.718820
    22  H    2.542475   3.517793   5.750532   4.650804   2.390294
    23  O    6.544163   3.699408   5.913330   7.502381   7.510902
    24  H    7.380753   4.524275   6.420610   8.207738   8.377352
                   11         12         13         14         15
    11  C    0.000000
    12  C    1.411782   0.000000
    13  C    2.425039   1.405663   0.000000
    14  C    2.789325   2.429959   1.396836   0.000000
    15  C    2.432444   2.827260   2.434909   1.399740   0.000000
    16  C    1.397845   2.437879   2.795951   2.410797   1.401019
    17  H    1.084690   2.165783   3.409718   3.873730   3.411657
    18  H    3.418958   2.174356   1.083774   2.138518   3.403086
    19  H    3.418077   3.914157   3.420369   2.166345   1.086898
    20  H    2.154675   3.420128   3.881644   3.395031   2.153606
    21  O    4.600667   3.480298   3.913014   5.226930   6.035367
    22  H    5.362636   4.294555   4.813976   6.156534   6.947121
    23  O    4.187056   3.677211   2.375650   1.399267   2.454922
    24  H    4.679958   4.411798   3.219353   1.989428   2.542459
                   16         17         18         19         20
    16  C    0.000000
    17  H    2.153747   0.000000
    18  H    3.879066   4.322907   0.000000
    19  H    2.165804   4.309503   4.296870   0.000000
    20  H    1.085724   2.477417   4.964756   2.487005   0.000000
    21  O    5.759446   4.790326   3.591695   7.072848   6.654966
    22  H    6.594387   5.421224   4.457894   7.998680   7.453555
    23  O    3.713695   5.271424   2.553931   2.718793   4.601245
    24  H    3.929561   5.750520   3.517803   2.390257   4.650785
                   21         22         23         24
    21  O    0.000000
    22  H    0.976065   0.000000
    23  O    5.965926   6.895025   0.000000
    24  H    6.881285   7.822292   0.976062   0.000000
 Symmetry turned off by external request.
 Stoichiometry    C12H10O2
 Framework group  C1[X(C12H10O2)]
 Deg. of freedom    66
 Full point group                 C1      NOp   1
 Rotational constants (GHZ):           1.5244159           0.5820572           0.4454072
 Standard basis: 6-31++G(d,p) (6D, 7F)
   326 basis functions,   528 primitive gaussians,   326 cartesian basis functions
    49 alpha electrons       49 beta electrons
       nuclear repulsion energy       897.0907359009 Hartrees.
 NAtoms=   24 NActive=   24 NUniq=   24 SFac= 1.00D+00 NAtFMM=   60 NAOKFM=F Big=F
 Integral buffers will be    131072 words long.
 Raffenetti 2 integral format.
 Two-electron integral symmetry is turned off.
 One-electron integrals computed using PRISM.
 NBasis=   326 RedAO= T EigKep=  1.09D-06  NBF=   326
 NBsUse=   323 1.00D-06 EigRej=  6.17D-07 NBFU=   323
 ExpMin= 3.60D-02 ExpMax= 5.48D+03 ExpMxC= 8.25D+02 IAcc=3 IRadAn=         5 AccDes= 0.00D+00
 Harris functional with IExCor=  402 and IRadAn=       5 diagonalized for initial guess.
 HarFok:  IExCor=  402 AccDes= 0.00D+00 IRadAn=         5 IDoV= 1 UseB2=F ITyADJ=14
 ICtDFT=  3500011 ScaDFX=  1.000000  1.000000  1.000000  1.000000
 FoFCou: FMM=F IPFlag=           0 FMFlag=      100000 FMFlg1=           0
         NFxFlg=           0 DoJE=T BraDBF=F KetDBF=T FulRan=T
         wScrn=  0.000000 ICntrl=       500 IOpCl=  0 I1Cent=   200000004 NGrid=           0
         NMat0=    1 NMatS0=      1 NMatT0=    0 NMatD0=    1 NMtDS0=    0 NMtDT0=    0
 Symmetry not used in FoFCou.
 Requested convergence on RMS density matrix=1.00D-08 within 128 cycles.
 Requested convergence on MAX density matrix=1.00D-06.
 Requested convergence on             energy=1.00D-06.
 No special actions if energy rises.
 SCF Done:  E(RB3LYP) =  -611.367654166     A.U. after   20 cycles
            NFock= 20  Conv=0.44D-08     -V/T= 1.9921

 **********************************************************************

            Population analysis using the SCF density.

 **********************************************************************

 Alpha  occ. eigenvalues --  -19.20660 -19.18986 -10.40821 -10.28399 -10.28336
 Alpha  occ. eigenvalues --  -10.25877 -10.21652 -10.21404 -10.21162 -10.20424
 Alpha  occ. eigenvalues --  -10.19376 -10.18597 -10.17650 -10.17121  -1.16336
 Alpha  occ. eigenvalues --   -1.06977  -1.05198  -1.00181  -0.87688  -0.82005
 Alpha  occ. eigenvalues --   -0.77977  -0.75910  -0.73587  -0.71865  -0.68382
 Alpha  occ. eigenvalues --   -0.64036  -0.61741  -0.55773  -0.55156  -0.53263
 Alpha  occ. eigenvalues --   -0.53056  -0.49240  -0.46913  -0.45003  -0.44414
 Alpha  occ. eigenvalues --   -0.43662  -0.41637  -0.40797  -0.39738  -0.39266
 Alpha  occ. eigenvalues --   -0.37298  -0.36066  -0.33014  -0.31021  -0.30537
 Alpha  occ. eigenvalues --   -0.25449  -0.21907  -0.21004  -0.16474
 Alpha virt. eigenvalues --   -0.05268  -0.03951  -0.02157  -0.01026  -0.00844
 Alpha virt. eigenvalues --   -0.00265   0.01037   0.02455   0.02805   0.03089
 Alpha virt. eigenvalues --    0.03522   0.04442   0.05202   0.05999   0.06503
 Alpha virt. eigenvalues --    0.06892   0.07355   0.08368   0.08690   0.09260
 Alpha virt. eigenvalues --    0.09503   0.10347   0.10395   0.10826   0.10902
 Alpha virt. eigenvalues --    0.11317   0.11727   0.11769   0.12025   0.12905
 Alpha virt. eigenvalues --    0.13598   0.13982   0.14601   0.14823   0.15453
 Alpha virt. eigenvalues --    0.15655   0.15987   0.16298   0.16729   0.16795
 Alpha virt. eigenvalues --    0.17357   0.17846   0.18397   0.18793   0.19521
 Alpha virt. eigenvalues --    0.20330   0.21136   0.21431   0.21935   0.22265
 Alpha virt. eigenvalues --    0.22612   0.23097   0.23485   0.23822   0.24278
 Alpha virt. eigenvalues --    0.25540   0.25776   0.26250   0.26716   0.27247
 Alpha virt. eigenvalues --    0.27657   0.28763   0.28911   0.29530   0.29753
 Alpha virt. eigenvalues --    0.30131   0.30899   0.30989   0.31479   0.31817
 Alpha virt. eigenvalues --    0.32049   0.32217   0.32600   0.34174   0.34549
 Alpha virt. eigenvalues --    0.35088   0.36299   0.36814   0.37469   0.38706
 Alpha virt. eigenvalues --    0.39897   0.40437   0.41299   0.43587   0.43806
 Alpha virt. eigenvalues --    0.44852   0.46281   0.48465   0.50151   0.51881
 Alpha virt. eigenvalues --    0.55459   0.56765   0.60434   0.60890   0.62898
 Alpha virt. eigenvalues --    0.64258   0.68115   0.68966   0.71914   0.73557
 Alpha virt. eigenvalues --    0.73985   0.74121   0.75842   0.75930   0.76843
 Alpha virt. eigenvalues --    0.78156   0.78237   0.79724   0.80047   0.81788
 Alpha virt. eigenvalues --    0.84118   0.84791   0.86009   0.88888   0.89769
 Alpha virt. eigenvalues --    0.89985   0.92716   0.94147   0.95311   0.96688
 Alpha virt. eigenvalues --    0.96785   0.98092   0.98662   0.99116   1.01811
 Alpha virt. eigenvalues --    1.02419   1.04397   1.05064   1.06746   1.08124
 Alpha virt. eigenvalues --    1.11299   1.11691   1.12839   1.14012   1.14900
 Alpha virt. eigenvalues --    1.17069   1.18343   1.19646   1.21600   1.22134
 Alpha virt. eigenvalues --    1.23243   1.25251   1.25929   1.27276   1.28323
 Alpha virt. eigenvalues --    1.30703   1.31305   1.31923   1.34437   1.37559
 Alpha virt. eigenvalues --    1.38784   1.39161   1.40897   1.42798   1.43091
 Alpha virt. eigenvalues --    1.44690   1.46244   1.46878   1.48619   1.53889
 Alpha virt. eigenvalues --    1.54951   1.58852   1.60167   1.61256   1.65085
 Alpha virt. eigenvalues --    1.68340   1.70842   1.74078   1.75862   1.77546
 Alpha virt. eigenvalues --    1.80096   1.81480   1.84070   1.86506   1.87688
 Alpha virt. eigenvalues --    1.88947   1.90536   1.91125   1.92850   1.93776
 Alpha virt. eigenvalues --    1.94974   1.96186   1.96671   1.98126   1.98637
 Alpha virt. eigenvalues --    2.00028   2.02384   2.04042   2.09389   2.11990
 Alpha virt. eigenvalues --    2.14578   2.16789   2.18383   2.24682   2.26471
 Alpha virt. eigenvalues --    2.27635   2.29184   2.31373   2.32127   2.34788
 Alpha virt. eigenvalues --    2.36497   2.37704   2.39090   2.39874   2.42866
 Alpha virt. eigenvalues --    2.43783   2.44676   2.45123   2.46525   2.47276
 Alpha virt. eigenvalues --    2.48244   2.50855   2.51482   2.53301   2.57267
 Alpha virt. eigenvalues --    2.57914   2.59789   2.60443   2.61701   2.63237
 Alpha virt. eigenvalues --    2.65036   2.66909   2.67749   2.67926   2.71039
 Alpha virt. eigenvalues --    2.71625   2.73261   2.78990   2.80127   2.80412
 Alpha virt. eigenvalues --    2.84278   2.88135   2.93952   2.95488   2.97709
 Alpha virt. eigenvalues --    2.99977   3.01456   3.04077   3.08108   3.14968
 Alpha virt. eigenvalues --    3.16986   3.20200   3.22513   3.30088   3.31245
 Alpha virt. eigenvalues --    3.31847   3.39410   3.41441   3.42780   3.47648
 Alpha virt. eigenvalues --    3.50089   3.51684   3.54518   3.65490   3.72772
 Alpha virt. eigenvalues --    3.82718   3.93812   4.06449   4.29370   4.32467
 Alpha virt. eigenvalues --    4.36220   4.37883   4.38456   4.45709   4.49746
 Alpha virt. eigenvalues --    4.51416   4.56014   4.65398   4.68348   4.85691
 Alpha virt. eigenvalues --    4.97299   5.02829   5.24632   9.45131
          Condensed to atoms (all electrons):
               1          2          3          4          5          6
     1  C   13.593326  -8.307165  -1.794889  -1.943829   2.277003  -1.952846
     2  C   -8.307165  35.937771  -6.706025  -3.431425   0.773674  -0.934779
     3  C   -1.794889  -6.706025  41.221861  -0.647282  -2.554671   0.966343
     4  C   -1.943829  -3.431425  -0.647282  22.224665  -6.713004   3.049522
     5  C    2.277003   0.773674  -2.554671  -6.713004  11.393644  -2.691783
     6  C   -1.952846  -0.934779   0.966343   3.049522  -2.691783  10.262435
     7  H   -0.520858   0.863627   0.060226   0.195932  -0.151037   0.047743
     8  H   -0.093771   0.045956   0.036553   0.787880  -0.413194   0.144856
     9  H    0.109994  -0.040205  -0.148153  -0.068790   0.438565  -0.213424
    10  H   -0.321592   0.137620   0.077391   0.018885  -0.081074   0.555805
    11  C   -0.109555  -1.808431  -1.188541  -0.787272  -0.144542  -0.226853
    12  C    0.583090  -1.218480 -17.701169  -2.600497   1.325130  -1.072211
    13  C    5.460621 -10.680493  -5.332745  -4.848187   2.153789  -1.890559
    14  C   -2.107585   1.861313   4.039328   2.434678  -1.284797   0.812389
    15  C    0.981570  -2.321298  -0.431170  -1.824034   0.652210  -0.356743
    16  C   -1.039871   3.712426  -3.574174   0.965272   0.617056  -0.019691
    17  H    0.207959  -0.668439  -0.351677   0.136389  -0.016951  -0.034276
    18  H    0.196433  -0.440230   0.021827  -0.128143   0.090109  -0.074193
    19  H    0.021086  -0.085263   0.019134  -0.037517   0.007423  -0.003735
    20  H   -0.029629   0.080311   0.016156   0.070465   0.017838  -0.002742
    21  O    0.505867  -0.657926   0.078236   0.074682   0.020400  -0.045947
    22  H   -0.016896   0.133923  -0.007257  -0.022500   0.020579  -0.122504
    23  O    0.009873   0.064119  -0.053481  -0.023695   0.005342  -0.002121
    24  H   -0.006169   0.032698   0.006556   0.004861  -0.001460   0.000534
               7          8          9         10         11         12
     1  C   -0.520858  -0.093771   0.109994  -0.321592  -0.109555   0.583090
     2  C    0.863627   0.045956  -0.040205   0.137620  -1.808431  -1.218480
     3  C    0.060226   0.036553  -0.148153   0.077391  -1.188541 -17.701169
     4  C    0.195932   0.787880  -0.068790   0.018885  -0.787272  -2.600497
     5  C   -0.151037  -0.413194   0.438565  -0.081074  -0.144542   1.325130
     6  C    0.047743   0.144856  -0.213424   0.555805  -0.226853  -1.072211
     7  H    0.706329   0.016699   0.000020   0.002590  -0.122887   0.050374
     8  H    0.016699   0.687654  -0.015014   0.000743   0.018258  -0.131583
     9  H    0.000020  -0.015014   0.640304  -0.019388   0.038996   0.064251
    10  H    0.002590   0.000743  -0.019388   0.668325  -0.003897  -0.044025
    11  C   -0.122887   0.018258   0.038996  -0.003897  23.181931   1.241425
    12  C    0.050374  -0.131583   0.064251  -0.044025   1.241425  29.829722
    13  C   -0.558443  -0.171163   0.041599  -0.063517  -2.523666  -3.990102
    14  C    0.257691   0.085753  -0.031562   0.017697  -0.779314  -0.301100
    15  C   -0.185015  -0.090081   0.018361  -0.007102  -1.392837  -0.622859
    16  C    0.180009  -0.035033   0.045309   0.003857  -9.192916  -0.370179
    17  H   -0.031560  -0.047624  -0.000390  -0.002619   0.980557   0.324843
    18  H   -0.073162  -0.006330   0.001104  -0.002077   0.074687  -0.207694
    19  H   -0.003716   0.000773   0.000153  -0.000076  -0.035706  -0.065804
    20  H    0.000941  -0.007341   0.000578  -0.000005  -0.295441  -0.056250
    21  O   -0.025690   0.001756  -0.000737  -0.024649  -0.009555  -0.038784
    22  H    0.001889  -0.000497   0.001706  -0.004991   0.003022   0.004528
    23  O    0.004767   0.000094   0.000117  -0.000064  -0.018040   0.097592
    24  H    0.004132   0.000043  -0.000010   0.000017  -0.023466   0.002523
              13         14         15         16         17         18
     1  C    5.460621  -2.107585   0.981570  -1.039871   0.207959   0.196433
     2  C  -10.680493   1.861313  -2.321298   3.712426  -0.668439  -0.440230
     3  C   -5.332745   4.039328  -0.431170  -3.574174  -0.351677   0.021827
     4  C   -4.848187   2.434678  -1.824034   0.965272   0.136389  -0.128143
     5  C    2.153789  -1.284797   0.652210   0.617056  -0.016951   0.090109
     6  C   -1.890559   0.812389  -0.356743  -0.019691  -0.034276  -0.074193
     7  H   -0.558443   0.257691  -0.185015   0.180009  -0.031560  -0.073162
     8  H   -0.171163   0.085753  -0.090081  -0.035033  -0.047624  -0.006330
     9  H    0.041599  -0.031562   0.018361   0.045309  -0.000390   0.001104
    10  H   -0.063517   0.017697  -0.007102   0.003857  -0.002619  -0.002077
    11  C   -2.523666  -0.779314  -1.392837  -9.192916   0.980557   0.074687
    12  C   -3.990102  -0.301100  -0.622859  -0.370179   0.324843  -0.207694
    13  C   36.262465 -11.749149   4.022342  -1.236211   0.326770   0.867315
    14  C  -11.749149  15.323485  -3.742254   1.540993  -0.047464  -0.278228
    15  C    4.022342  -3.742254  11.982420  -1.203690  -0.040178   0.255722
    16  C   -1.236211   1.540993  -1.203690  15.809423  -0.847301  -0.110738
    17  H    0.326770  -0.047464  -0.040178  -0.847301   1.028927   0.006971
    18  H    0.867315  -0.278228   0.255722  -0.110738   0.006971   0.630499
    19  H    0.240265  -0.321274   0.603467  -0.062889   0.002425   0.005896
    20  H   -0.035762   0.065145  -0.023837   0.493516  -0.044733  -0.000547
    21  O    0.102891   0.002326   0.008370  -0.015927   0.004633   0.004275
    22  H    0.016220  -0.005069   0.001783   0.000577  -0.000003   0.001496
    23  O   -0.363206   0.334902  -0.065757   0.033740  -0.000260  -0.034153
    24  H    0.109979   0.059502  -0.204894   0.026000  -0.000881  -0.002331
              19         20         21         22         23         24
     1  C    0.021086  -0.029629   0.505867  -0.016896   0.009873  -0.006169
     2  C   -0.085263   0.080311  -0.657926   0.133923   0.064119   0.032698
     3  C    0.019134   0.016156   0.078236  -0.007257  -0.053481   0.006556
     4  C   -0.037517   0.070465   0.074682  -0.022500  -0.023695   0.004861
     5  C    0.007423   0.017838   0.020400   0.020579   0.005342  -0.001460
     6  C   -0.003735  -0.002742  -0.045947  -0.122504  -0.002121   0.000534
     7  H   -0.003716   0.000941  -0.025690   0.001889   0.004767   0.004132
     8  H    0.000773  -0.007341   0.001756  -0.000497   0.000094   0.000043
     9  H    0.000153   0.000578  -0.000737   0.001706   0.000117  -0.000010
    10  H   -0.000076  -0.000005  -0.024649  -0.004991  -0.000064   0.000017
    11  C   -0.035706  -0.295441  -0.009555   0.003022  -0.018040  -0.023466
    12  C   -0.065804  -0.056250  -0.038784   0.004528   0.097592   0.002523
    13  C    0.240265  -0.035762   0.102891   0.016220  -0.363206   0.109979
    14  C   -0.321274   0.065145   0.002326  -0.005069   0.334902   0.059502
    15  C    0.603467  -0.023837   0.008370   0.001783  -0.065757  -0.204894
    16  C   -0.062889   0.493516  -0.015927   0.000577   0.033740   0.026000
    17  H    0.002425  -0.044733   0.004633  -0.000003  -0.000260  -0.000881
    18  H    0.005896  -0.000547   0.004275   0.001496  -0.034153  -0.002331
    19  H    0.672412  -0.015818   0.000072   0.000029  -0.024970  -0.007594
    20  H   -0.015818   0.629423  -0.000227   0.000012  -0.001162   0.001686
    21  O    0.000072  -0.000227   8.321512   0.198731  -0.000120  -0.000127
    22  H    0.000029   0.000012   0.198731   0.408681   0.000007  -0.000003
    23  O   -0.024970  -0.001162  -0.000120   0.000007   8.343298   0.198042
    24  H   -0.007594   0.001686  -0.000127  -0.000003   0.198042   0.434211
 Mulliken charges:
               1
     1  C    0.297834
     2  C   -0.343281
     3  C   -0.052375
     4  C   -0.887055
     5  C    0.259751
     6  C   -0.195219
     7  H    0.279402
     8  H    0.184613
     9  H    0.136614
    10  H    0.092147
    11  C   -0.875959
    12  C    0.897258
    13  C   -0.161052
    14  C   -0.187409
    15  C   -0.014497
    16  C    0.280444
    17  H    0.114883
    18  H    0.201492
    19  H    0.091227
    20  H    0.137421
    21  O   -0.504060
    22  H    0.386536
    23  O   -0.504864
    24  H    0.366149
 Sum of Mulliken charges =   0.00000
 Mulliken charges with hydrogens summed into heavy atoms:
               1
     1  C    0.297834
     2  C   -0.063879
     3  C   -0.052375
     4  C   -0.702442
     5  C    0.396365
     6  C   -0.103072
    11  C   -0.761076
    12  C    0.897258
    13  C    0.040440
    14  C   -0.187409
    15  C    0.076730
    16  C    0.417865
    21  O   -0.117525
    23  O   -0.138714
 Electronic spatial extent (au):  <R**2>=           4291.1367
 Charge=              0.0000 electrons
 Dipole moment (field-independent basis, Debye):
    X=              1.4190    Y=             -0.3634    Z=             -1.1684  Tot=              1.8737
 Quadrupole moment (field-independent basis, Debye-Ang):
   XX=            -79.7476   YY=            -87.8900   ZZ=            -65.8649
   XY=             -0.3394   XZ=              3.3309   YZ=             -0.5095
 Traceless Quadrupole moment (field-independent basis, Debye-Ang):
   XX=             -1.9135   YY=            -10.0558   ZZ=             11.9693
   XY=             -0.3394   XZ=              3.3309   YZ=             -0.5095
 Octapole moment (field-independent basis, Debye-Ang**2):
  XXX=           -125.4582  YYY=            -87.4815  ZZZ=           -427.2594  XYY=            -55.4686
  XXY=            -31.7366  XXZ=           -178.3898  XZZ=            -55.0065  YZZ=            -13.5086
  YYZ=           -189.5947  XYZ=             -5.4151
 Hexadecapole moment (field-independent basis, Debye-Ang**3):
 XXXX=           -956.9024 YYYY=           -412.9173 ZZZZ=          -3479.5351 XXXY=             76.7058
 XXXZ=           -194.2010 YYYX=             84.8878 YYYZ=           -374.3716 ZZZX=           -305.3409
 ZZZY=           -162.3948 XXYY=           -257.8052 XXZZ=           -897.0860 YYZZ=           -833.3689
 XXYZ=           -142.5037 YYXZ=            -81.8249 ZZXY=            -27.8605
 N-N= 8.970907359009D+02 E-N=-3.221015755062D+03  KE= 6.162368880988D+02
 Variable Step   Value    
 -------- ---- -----------
    10       1    2.078699
 ---------------------------------------------------------------------------------------------------
                            Z-MATRIX (ANGSTROMS AND DEGREES)
   CD    Cent   Atom    N1       Length/X        N2       Alpha/Y        N3        Beta/Z          J
 ---------------------------------------------------------------------------------------------------
      1      1  C 
      2      2  C        1   1.396844(     1)
      3      3  C        2   1.405662(     2)      1  120.239(    24)
      4      4  C        3   1.411790(     3)      2  118.796(    25)      1    0.073(    46)      0
      5      5  C        4   1.397847(     4)      3  120.381(    26)      2   -0.122(    47)      0
      6      6  C        1   1.399746(     5)      2  121.074(    27)      3    0.033(    48)      0
      7      7  H        2   1.083774(     6)      1  118.561(    28)      6 -178.308(    49)      0
      8      8  H        4   1.084691(     7)      3  119.775(    29)      2  178.228(    50)      0
      9      9  H        5   1.085724(     8)      4  119.830(    30)      3  179.453(    51)      0
     10     10  H        6   1.086900(     9)      1  120.678(    31)      2  179.987(    52)      0
     11     11  C        3   1.100000(    10)      2  140.298(    32)      1 -152.173(    53)      0
     12     12  C       11   1.411782(    11)      3   30.486(    33)      2  -56.902(    54)      0
     13     13  C       12   1.405663(    12)     11  118.795(    34)      3  179.895(    55)      0
     14     14  C       13   1.396836(    13)     12  120.239(    35)     11    0.062(    56)      0
     15     15  C       14   1.399740(    14)     13  121.074(    36)     12    0.028(    57)      0
     16     16  C       11   1.397845(    15)      3  150.867(    37)      2  -56.905(    58)      0
     17     17  H       11   1.084690(    16)      3   89.300(    38)      2  121.659(    59)      0
     18     18  H       13   1.083774(    17)     12  121.179(    39)     11  178.368(    60)      0
     19     19  H       15   1.086898(    18)     14  120.678(    40)     13  179.943(    61)      0
     20     20  H       16   1.085724(    19)     11  119.830(    41)      3  179.465(    62)      0
     21     21  O        1   1.399266(    20)      2  116.342(    42)      3  179.593(    63)      0
     22     22  H       21   0.976065(    21)      1  112.542(    43)      2 -179.287(    64)      0
     23     23  O       14   1.399267(    22)     13  116.343(    44)     12  179.587(    65)      0
     24     24  H       23   0.976062(    23)     14  112.542(    45)     13 -179.325(    66)      0
 ---------------------------------------------------------------------------------------------------
                         Z-Matrix orientation:                         
 ---------------------------------------------------------------------
 Center     Atomic      Atomic             Coordinates (Angstroms)
 Number     Number       Type             X           Y           Z
 ---------------------------------------------------------------------
      1          6           0        0.000000    0.000000    0.000000
      2          6           0        0.000000    0.000000    1.396844
      3          6           0        1.214394    0.000000    2.104751
      4          6           0        2.424975    0.001573    1.378361
      5          6           0        2.410729    0.000541   -0.019413
      6          6           0        1.198885   -0.000682   -0.722471
      7          1           0       -0.951489   -0.027572    1.914990
      8          1           0        3.371026    0.030709    1.908165
      9          1           0        3.346990    0.010767   -0.569058
     10          1           0        1.191370   -0.000895   -1.809344
     11          6           0        1.632593   -0.328015    3.067827
     12          6           0        0.679142    0.424934    2.348711
     13          6           0       -0.269557    1.176187    3.063886
     14          6           0       -0.261202    1.173250    4.460694
     15          6           0        0.684245    0.429075    5.175963
     16          6           0        1.630365   -0.321373    4.465655
     17          1           0        2.353830   -0.936054    2.532422
     18          1           0       -1.002297    1.788569    2.551397
     19          1           0        0.685417    0.432184    6.262856
     20          1           0        2.362227   -0.910607    5.009693
     21          8           0       -1.253934   -0.008905   -0.620898
     22          1           0       -1.189198   -0.019662   -1.594754
     23          8           0       -1.235835    1.956291    5.089091
     24          1           0       -1.172914    1.922083    6.062522
 ---------------------------------------------------------------------
                    Distance matrix (angstroms):
                    1          2          3          4          5
     1  C    0.000000
     2  C    1.396844   0.000000
     3  C    2.429965   1.405662   0.000000
     4  C    2.789334   2.425046   1.411790   0.000000
     5  C    2.410808   2.795961   2.437887   1.397847   0.000000
     6  C    1.399746   2.434916   2.827264   2.432447   1.401020
     7  H    2.138522   1.083774   2.174354   3.418966   3.879074
     8  H    3.873739   3.409723   2.165792   1.084691   2.153749
     9  H    3.395038   3.881652   3.420137   2.154678   1.085724
    10  H    2.166354   3.420381   3.914163   3.418078   2.165801
    11  C    3.490633   2.359055   1.100000   1.894939   3.200703
    12  C    2.481581   1.244128   0.725658   2.041750   2.964205
    13  C    3.292943   2.057938   2.122608   3.388394   4.251213
    14  C    4.619798   3.291189   3.017344   4.253134   5.346571
    15  C    5.238596   3.864458   3.146030   4.199366   5.491477
    16  C    4.764813   3.489839   2.418714   3.204229   4.563818
    17  H    3.581881   2.776014   1.535388   1.488644   2.718880
    18  H    3.273104   2.352993   2.883087   4.039253   4.631939
    19  H    6.315057   4.933017   4.213839   5.202862   6.529160
    20  H    5.613052   4.411576   3.253524   3.744674   5.111209
    21  O    1.399266   2.375650   3.677212   4.187066   3.713709
    22  H    1.989427   3.219353   4.411800   4.679969   3.929578
    23  O    5.590457   4.357414   4.328623   5.567043   6.574132
    24  H    6.467171   5.180607   5.005756   6.210839   7.316062
                    6          7          8          9         10
     6  C    0.000000
     7  H    3.403091   0.000000
     8  H    3.411660   4.322913   0.000000
     9  H    2.153607   4.964764   2.477419   0.000000
    10  H    1.086900   4.296885   4.309498   2.486995   0.000000
    11  C    3.829048   2.845484   2.120295   4.034955   4.908002
    12  C    3.143793   1.746949   2.756036   3.975213   4.211072
    13  C    4.228220   1.798341   3.987688   5.256986   5.221897
    14  C    5.511367   2.898117   4.584090   6.298319   6.542321
    15  C    5.936418   3.676696   4.249235   6.345901   7.016877
    16  C    5.215905   3.641179   3.113618   5.329676   6.298495
    17  H    3.578148   3.483059   1.535908   3.391461   4.590944
    18  H    4.331840   1.925088   4.757077   5.640401   5.199079
    19  H    7.017536   4.668488   5.131960   7.344155   8.099628
    20  H    5.919378   4.619270   3.394589   5.739438   6.978378
    21  O    2.454935   2.553928   5.271431   4.601258   2.718820
    22  H    2.542475   3.517793   5.750532   4.650804   2.390294
    23  O    6.597868   3.753862   5.920248   7.536710   7.570358
    24  H    7.440335   4.588268   6.440759   8.249879   8.441206
                   11         12         13         14         15
    11  C    0.000000
    12  C    1.411782   0.000000
    13  C    2.425039   1.405663   0.000000
    14  C    2.789325   2.429959   1.396836   0.000000
    15  C    2.432444   2.827260   2.434909   1.399740   0.000000
    16  C    1.397845   2.437879   2.795951   2.410797   1.401019
    17  H    1.084690   2.165783   3.409718   3.873730   3.411657
    18  H    3.418958   2.174356   1.083774   2.138518   3.403086
    19  H    3.418077   3.914157   3.420369   2.166345   1.086898
    20  H    2.154675   3.420128   3.881644   3.395031   2.153606
    21  O    4.694738   3.569814   3.993880   5.310893   6.127965
    22  H    5.458686   4.386259   4.896807   6.241207   7.039443
    23  O    4.187056   3.677211   2.375650   1.399267   2.454922
    24  H    4.679958   4.411798   3.219353   1.989428   2.542459
                   16         17         18         19         20
    16  C    0.000000
    17  H    2.153747   0.000000
    18  H    3.879066   4.322907   0.000000
    19  H    2.165804   4.309503   4.296870   0.000000
    20  H    1.085724   2.477417   4.964756   2.487005   0.000000
    21  O    5.855753   4.880471   3.654817   7.165313   6.752277
    22  H    6.691003   5.516013   4.527162   8.090759   7.551498
    23  O    3.713695   5.271424   2.553931   2.718793   4.601245
    24  H    3.929561   5.750520   3.517803   2.390257   4.650785
                   21         22         23         24
    21  O    0.000000
    22  H    0.976065   0.000000
    23  O    6.038733   6.969960   0.000000
    24  H    6.957254   7.899653   0.976062   0.000000
 Symmetry turned off by external request.
 Stoichiometry    C12H10O2
 Framework group  C1[X(C12H10O2)]
 Deg. of freedom    66
 Full point group                 C1      NOp   1
 Rotational constants (GHZ):           1.5217448           0.5658285           0.4356445
 Standard basis: 6-31++G(d,p) (6D, 7F)
   326 basis functions,   528 primitive gaussians,   326 cartesian basis functions
    49 alpha electrons       49 beta electrons
       nuclear repulsion energy       889.4525382477 Hartrees.
 NAtoms=   24 NActive=   24 NUniq=   24 SFac= 1.00D+00 NAtFMM=   60 NAOKFM=F Big=F
 Integral buffers will be    131072 words long.
 Raffenetti 2 integral format.
 Two-electron integral symmetry is turned off.
 One-electron integrals computed using PRISM.
 NBasis=   326 RedAO= T EigKep=  1.12D-06  NBF=   326
 NBsUse=   323 1.00D-06 EigRej=  6.28D-07 NBFU=   323
 Initial guess from the checkpoint file:  "C:\Users\Administrator\Desktop\dataset_dft\C12H8O1\C12H8O1.chk"
 B after Tr=     0.008909    0.004262    0.084665
         Rot=    0.999987   -0.003869   -0.003236    0.000233 Ang=  -0.58 deg.
 ExpMin= 3.60D-02 ExpMax= 5.48D+03 ExpMxC= 8.25D+02 IAcc=3 IRadAn=         5 AccDes= 0.00D+00
 Harris functional with IExCor=  402 and IRadAn=       5 diagonalized for initial guess.
 HarFok:  IExCor=  402 AccDes= 0.00D+00 IRadAn=         5 IDoV= 1 UseB2=F ITyADJ=14
 ICtDFT=  3500011 ScaDFX=  1.000000  1.000000  1.000000  1.000000
 FoFCou: FMM=F IPFlag=           0 FMFlag=      100000 FMFlg1=           0
         NFxFlg=           0 DoJE=T BraDBF=F KetDBF=T FulRan=T
         wScrn=  0.000000 ICntrl=       500 IOpCl=  0 I1Cent=   200000004 NGrid=           0
         NMat0=    1 NMatS0=      1 NMatT0=    0 NMatD0=    1 NMtDS0=    0 NMtDT0=    0
 Symmetry not used in FoFCou.
 Requested convergence on RMS density matrix=1.00D-08 within 128 cycles.
 Requested convergence on MAX density matrix=1.00D-06.
 Requested convergence on             energy=1.00D-06.
 No special actions if energy rises.
 SCF Done:  E(RB3LYP) =  -611.406411545     A.U. after   17 cycles
            NFock= 17  Conv=0.47D-08     -V/T= 1.9935
 Variable Step   Value    
 -------- ---- -----------
    10       2    2.267671
 ---------------------------------------------------------------------------------------------------
                            Z-MATRIX (ANGSTROMS AND DEGREES)
   CD    Cent   Atom    N1       Length/X        N2       Alpha/Y        N3        Beta/Z          J
 ---------------------------------------------------------------------------------------------------
      1      1  C 
      2      2  C        1   1.396844(     1)
      3      3  C        2   1.405662(     2)      1  120.239(    24)
      4      4  C        3   1.411790(     3)      2  118.796(    25)      1    0.073(    46)      0
      5      5  C        4   1.397847(     4)      3  120.381(    26)      2   -0.122(    47)      0
      6      6  C        1   1.399746(     5)      2  121.074(    27)      3    0.033(    48)      0
      7      7  H        2   1.083774(     6)      1  118.561(    28)      6 -178.308(    49)      0
      8      8  H        4   1.084691(     7)      3  119.775(    29)      2  178.228(    50)      0
      9      9  H        5   1.085724(     8)      4  119.830(    30)      3  179.453(    51)      0
     10     10  H        6   1.086900(     9)      1  120.678(    31)      2  179.987(    52)      0
     11     11  C        3   1.200000(    10)      2  140.298(    32)      1 -152.173(    53)      0
     12     12  C       11   1.411782(    11)      3   30.486(    33)      2  -56.902(    54)      0
     13     13  C       12   1.405663(    12)     11  118.795(    34)      3  179.895(    55)      0
     14     14  C       13   1.396836(    13)     12  120.239(    35)     11    0.062(    56)      0
     15     15  C       14   1.399740(    14)     13  121.074(    36)     12    0.028(    57)      0
     16     16  C       11   1.397845(    15)      3  150.867(    37)      2  -56.905(    58)      0
     17     17  H       11   1.084690(    16)      3   89.300(    38)      2  121.659(    59)      0
     18     18  H       13   1.083774(    17)     12  121.179(    39)     11  178.368(    60)      0
     19     19  H       15   1.086898(    18)     14  120.678(    40)     13  179.943(    61)      0
     20     20  H       16   1.085724(    19)     11  119.830(    41)      3  179.465(    62)      0
     21     21  O        1   1.399266(    20)      2  116.342(    42)      3  179.593(    63)      0
     22     22  H       21   0.976065(    21)      1  112.542(    43)      2 -179.287(    64)      0
     23     23  O       14   1.399267(    22)     13  116.343(    44)     12  179.587(    65)      0
     24     24  H       23   0.976062(    23)     14  112.542(    45)     13 -179.325(    66)      0
 ---------------------------------------------------------------------------------------------------
                         Z-Matrix orientation:                         
 ---------------------------------------------------------------------
 Center     Atomic      Atomic             Coordinates (Angstroms)
 Number     Number       Type             X           Y           Z
 ---------------------------------------------------------------------
      1          6           0        0.000000    0.000000    0.000000
      2          6           0        0.000000    0.000000    1.396844
      3          6           0        1.214394    0.000000    2.104751
      4          6           0        2.424975    0.001573    1.378361
      5          6           0        2.410729    0.000541   -0.019413
      6          6           0        1.198885   -0.000682   -0.722471
      7          1           0       -0.951489   -0.027572    1.914990
      8          1           0        3.371026    0.030709    1.908165
      9          1           0        3.346990    0.010767   -0.569058
     10          1           0        1.191370   -0.000895   -1.809344
     11          6           0        1.670611   -0.357834    3.155380
     12          6           0        0.717160    0.395114    2.436263
     13          6           0       -0.231539    1.146367    3.151439
     14          6           0       -0.223183    1.143430    4.548247
     15          6           0        0.722263    0.399256    5.263515
     16          6           0        1.668383   -0.351192    4.553207
     17          1           0        2.391849   -0.965873    2.619974
     18          1           0       -0.964279    1.758750    2.638949
     19          1           0        0.723435    0.402364    6.350408
     20          1           0        2.400245   -0.940427    5.097246
     21          8           0       -1.253934   -0.008905   -0.620898
     22          1           0       -1.189198   -0.019662   -1.594754
     23          8           0       -1.197817    1.926471    5.176643
     24          1           0       -1.134896    1.892263    6.150074
 ---------------------------------------------------------------------
                    Distance matrix (angstroms):
                    1          2          3          4          5
     1  C    0.000000
     2  C    1.396844   0.000000
     3  C    2.429965   1.405662   0.000000
     4  C    2.789334   2.425046   1.411790   0.000000
     5  C    2.410808   2.795961   2.437887   1.397847   0.000000
     6  C    1.399746   2.434916   2.827264   2.432447   1.401020
     7  H    2.138522   1.083774   2.174354   3.418966   3.879074
     8  H    3.873739   3.409723   2.165792   1.084691   2.153749
     9  H    3.395038   3.881652   3.420137   2.154678   1.085724
    10  H    2.166354   3.420381   3.914163   3.418078   2.165801
    11  C    3.588232   2.451823   1.200000   1.963678   3.279561
    12  C    2.570177   1.323188   0.716419   2.047110   3.009021
    13  C    3.361448   2.108642   2.121422   3.392849   4.283550
    14  C    4.695082   3.359849   3.056915   4.285412   5.395110
    15  C    5.327819   3.953760   3.221706   4.260493   5.560506
    16  C    4.861948   3.587405   2.514832   3.282761   4.645821
    17  H    3.676699   2.854803   1.607721   1.574374   2.810815
    18  H    3.314678   2.359208   2.850471   4.020422   4.642076
    19  H    6.404135   5.022257   4.292848   5.270401   6.601746
    20  H    5.712048   4.509829   3.353456   3.836415   5.202474
    21  O    1.399266   2.375650   3.677212   4.187066   3.713709
    22  H    1.989427   3.219353   4.411800   4.679969   3.929578
    23  O    5.651875   4.408281   4.355063   5.590778   6.612853
    24  H    6.533916   5.240406   5.046232   6.246330   7.362924
                    6          7          8          9         10
     6  C    0.000000
     7  H    3.403091   0.000000
     8  H    3.411660   4.322913   0.000000
     9  H    2.153607   4.964764   2.477419   0.000000
    10  H    1.086900   4.296885   4.309498   2.486995   0.000000
    11  C    3.922729   2.919426   2.144277   4.100920   5.000556
    12  C    3.219676   1.798549   2.730327   4.011942   4.290324
    13  C    4.285908   1.850748   3.971007   5.285598   5.286800
    14  C    5.577789   2.972493   4.596360   6.341598   6.612821
    15  C    6.018234   3.767791   4.290705   6.407731   7.099685
    16  C    5.308113   3.732111   3.168768   5.402438   6.390017
    17  H    3.677865   3.543348   1.568004   3.469300   4.689477
    18  H    4.367382   1.927492   4.723880   5.651000   5.246951
    19  H    7.100290   4.760583   5.184727   7.410493   8.183101
    20  H    6.016268   4.711069   3.472140   5.823065   7.074255
    21  O    2.454935   2.553928   5.271431   4.601258   2.718820
    22  H    2.542475   3.517793   5.750532   4.650804   2.390294
    23  O    6.652642   3.810164   5.928845   7.572204   7.630661
    24  H    7.500777   4.653531   6.462392   8.293013   8.505758
                   11         12         13         14         15
    11  C    0.000000
    12  C    1.411782   0.000000
    13  C    2.425039   1.405663   0.000000
    14  C    2.789325   2.429959   1.396836   0.000000
    15  C    2.432444   2.827260   2.434909   1.399740   0.000000
    16  C    1.397845   2.437879   2.795951   2.410797   1.401019
    17  H    1.084690   2.165783   3.409718   3.873730   3.411657
    18  H    3.418958   2.174356   1.083774   2.138518   3.403086
    19  H    3.418077   3.914157   3.420369   2.166345   1.086898
    20  H    2.154675   3.420128   3.881644   3.395031   2.153606
    21  O    4.789049   3.659874   4.075594   5.395404   6.220793
    22  H    5.554875   4.478319   4.980269   6.326328   7.131972
    23  O    4.187056   3.677211   2.375650   1.399267   2.454922
    24  H    4.679958   4.411798   3.219353   1.989428   2.542459
                   16         17         18         19         20
    16  C    0.000000
    17  H    2.153747   0.000000
    18  H    3.879066   4.322907   0.000000
    19  H    2.165804   4.309503   4.296870   0.000000
    20  H    1.085724   2.477417   4.964756   2.487005   0.000000
    21  O    5.952182   4.970993   3.719557   7.257978   6.849666
    22  H    6.787718   5.610984   4.597562   8.183024   7.649495
    23  O    3.713695   5.271424   2.553931   2.718793   4.601245
    24  H    3.929561   5.750520   3.517803   2.390257   4.650785
                   21         22         23         24
    21  O    0.000000
    22  H    0.976065   0.000000
    23  O    6.112309   7.045519   0.000000
    24  H    7.033824   7.977517   0.976062   0.000000
 Symmetry turned off by external request.
 Stoichiometry    C12H10O2
 Framework group  C1[X(C12H10O2)]
 Deg. of freedom    66
 Full point group                 C1      NOp   1
 Rotational constants (GHZ):           1.5193281           0.5498813           0.4259721
 Standard basis: 6-31++G(d,p) (6D, 7F)
   326 basis functions,   528 primitive gaussians,   326 cartesian basis functions
    49 alpha electrons       49 beta electrons
       nuclear repulsion energy       881.8356772377 Hartrees.
 NAtoms=   24 NActive=   24 NUniq=   24 SFac= 1.00D+00 NAtFMM=   60 NAOKFM=F Big=F
 Integral buffers will be    131072 words long.
 Raffenetti 2 integral format.
 Two-electron integral symmetry is turned off.
 One-electron integrals computed using PRISM.
 NBasis=   326 RedAO= T EigKep=  1.15D-06  NBF=   326
 NBsUse=   323 1.00D-06 EigRej=  6.89D-07 NBFU=   323
 Initial guess from the checkpoint file:  "C:\Users\Administrator\Desktop\dataset_dft\C12H8O1\C12H8O1.chk"
 B after Tr=     0.008922    0.004011    0.085107
         Rot=    0.999988   -0.003767   -0.003176    0.000213 Ang=  -0.57 deg.
 ExpMin= 3.60D-02 ExpMax= 5.48D+03 ExpMxC= 8.25D+02 IAcc=3 IRadAn=         5 AccDes= 0.00D+00
 Harris functional with IExCor=  402 and IRadAn=       5 diagonalized for initial guess.
 HarFok:  IExCor=  402 AccDes= 0.00D+00 IRadAn=         5 IDoV= 1 UseB2=F ITyADJ=14
 ICtDFT=  3500011 ScaDFX=  1.000000  1.000000  1.000000  1.000000
 FoFCou: FMM=F IPFlag=           0 FMFlag=      100000 FMFlg1=           0
         NFxFlg=           0 DoJE=T BraDBF=F KetDBF=T FulRan=T
         wScrn=  0.000000 ICntrl=       500 IOpCl=  0 I1Cent=   200000004 NGrid=           0
         NMat0=    1 NMatS0=      1 NMatT0=    0 NMatD0=    1 NMtDS0=    0 NMtDT0=    0
 Symmetry not used in FoFCou.
 Requested convergence on RMS density matrix=1.00D-08 within 128 cycles.
 Requested convergence on MAX density matrix=1.00D-06.
 Requested convergence on             energy=1.00D-06.
 No special actions if energy rises.
 SCF Done:  E(RB3LYP) =  -611.468142479     A.U. after   18 cycles
            NFock= 18  Conv=0.47D-08     -V/T= 1.9948
 Variable Step   Value    
 -------- ---- -----------
    10       3    2.456644
 ---------------------------------------------------------------------------------------------------
                            Z-MATRIX (ANGSTROMS AND DEGREES)
   CD    Cent   Atom    N1       Length/X        N2       Alpha/Y        N3        Beta/Z          J
 ---------------------------------------------------------------------------------------------------
      1      1  C 
      2      2  C        1   1.396844(     1)
      3      3  C        2   1.405662(     2)      1  120.239(    24)
      4      4  C        3   1.411790(     3)      2  118.796(    25)      1    0.073(    46)      0
      5      5  C        4   1.397847(     4)      3  120.381(    26)      2   -0.122(    47)      0
      6      6  C        1   1.399746(     5)      2  121.074(    27)      3    0.033(    48)      0
      7      7  H        2   1.083774(     6)      1  118.561(    28)      6 -178.308(    49)      0
      8      8  H        4   1.084691(     7)      3  119.775(    29)      2  178.228(    50)      0
      9      9  H        5   1.085724(     8)      4  119.830(    30)      3  179.453(    51)      0
     10     10  H        6   1.086900(     9)      1  120.678(    31)      2  179.987(    52)      0
     11     11  C        3   1.300000(    10)      2  140.298(    32)      1 -152.173(    53)      0
     12     12  C       11   1.411782(    11)      3   30.486(    33)      2  -56.902(    54)      0
     13     13  C       12   1.405663(    12)     11  118.795(    34)      3  179.895(    55)      0
     14     14  C       13   1.396836(    13)     12  120.239(    35)     11    0.062(    56)      0
     15     15  C       14   1.399740(    14)     13  121.074(    36)     12    0.028(    57)      0
     16     16  C       11   1.397845(    15)      3  150.867(    37)      2  -56.905(    58)      0
     17     17  H       11   1.084690(    16)      3   89.300(    38)      2  121.659(    59)      0
     18     18  H       13   1.083774(    17)     12  121.179(    39)     11  178.368(    60)      0
     19     19  H       15   1.086898(    18)     14  120.678(    40)     13  179.943(    61)      0
     20     20  H       16   1.085724(    19)     11  119.830(    41)      3  179.465(    62)      0
     21     21  O        1   1.399266(    20)      2  116.342(    42)      3  179.593(    63)      0
     22     22  H       21   0.976065(    21)      1  112.542(    43)      2 -179.287(    64)      0
     23     23  O       14   1.399267(    22)     13  116.343(    44)     12  179.587(    65)      0
     24     24  H       23   0.976062(    23)     14  112.542(    45)     13 -179.325(    66)      0
 ---------------------------------------------------------------------------------------------------
                         Z-Matrix orientation:                         
 ---------------------------------------------------------------------
 Center     Atomic      Atomic             Coordinates (Angstroms)
 Number     Number       Type             X           Y           Z
 ---------------------------------------------------------------------
      1          6           0        0.000000    0.000000    0.000000
      2          6           0        0.000000    0.000000    1.396844
      3          6           0        1.214394    0.000000    2.104751
      4          6           0        2.424975    0.001573    1.378361
      5          6           0        2.410729    0.000541   -0.019413
      6          6           0        1.198885   -0.000682   -0.722471
      7          1           0       -0.951489   -0.027572    1.914990
      8          1           0        3.371026    0.030709    1.908165
      9          1           0        3.346990    0.010767   -0.569058
     10          1           0        1.191370   -0.000895   -1.809344
     11          6           0        1.708629   -0.387654    3.242932
     12          6           0        0.755178    0.365295    2.523815
     13          6           0       -0.193521    1.116548    3.238991
     14          6           0       -0.185165    1.113610    4.635799
     15          6           0        0.760281    0.369436    5.351067
     16          6           0        1.706401   -0.381012    4.640760
     17          1           0        2.429867   -0.995693    2.707527
     18          1           0       -0.926261    1.728930    2.726502
     19          1           0        0.761453    0.372545    6.437961
     20          1           0        2.438263   -0.970246    5.184798
     21          8           0       -1.253934   -0.008905   -0.620898
     22          1           0       -1.189198   -0.019662   -1.594754
     23          8           0       -1.159799    1.896652    5.264196
     24          1           0       -1.096878    1.862444    6.237627
 ---------------------------------------------------------------------
                    Distance matrix (angstroms):
                    1          2          3          4          5
     1  C    0.000000
     2  C    1.396844   0.000000
     3  C    2.429965   1.405662   0.000000
     4  C    2.789334   2.425046   1.411790   0.000000
     5  C    2.410808   2.795961   2.437887   1.397847   0.000000
     6  C    1.399746   2.434916   2.827264   2.432447   1.401020
     7  H    2.138522   1.083774   2.174354   3.418966   3.879074
     8  H    3.873739   3.409723   2.165792   1.084691   2.153749
     9  H    3.395038   3.881652   3.420137   2.154678   1.085724
    10  H    2.166354   3.420381   3.914163   3.418078   2.165801
    11  C    3.685960   2.545139   1.300000   2.035012   3.359544
    12  C    2.659582   1.404920   0.721064   2.057323   3.056453
    13  C    3.431500   2.162784   2.124947   3.400240   4.317961
    14  C    4.771273   3.430051   3.099209   4.319764   5.445052
    15  C    5.417419   4.043562   3.298677   4.323069   5.630464
    16  C    4.959196   3.685101   2.611241   3.362434   4.728517
    17  H    3.771784   2.934884   1.682889   1.661699   2.903283
    18  H    3.358716   2.369631   2.821024   4.004001   4.654340
    19  H    6.493531   5.111894   4.372717   5.338958   6.675041
    20  H    5.811079   4.608156   3.453393   3.928559   5.294054
    21  O    1.399266   2.375650   3.677212   4.187066   3.713709
    22  H    1.989427   3.219353   4.411800   4.679969   3.929578
    23  O    5.714384   4.460811   4.383625   5.616194   6.652851
    24  H    6.601502   5.301417   5.088353   6.283211   7.410839
                    6          7          8          9         10
     6  C    0.000000
     7  H    3.403091   0.000000
     8  H    3.411660   4.322913   0.000000
     9  H    2.153607   4.964764   2.477419   0.000000
    10  H    1.086900   4.296885   4.309498   2.486995   0.000000
    11  C    4.016716   2.994882   2.172601   4.168241   5.093391
    12  C    3.296845   1.854110   2.708068   4.050807   4.370427
    13  C    4.345132   1.906962   3.956784   5.315939   5.352784
    14  C    5.645201   3.048336   4.610766   6.386151   6.684074
    15  C    6.100592   3.859326   4.334087   6.470517   7.182930
    16  C    5.400598   3.823496   3.226076   5.476059   6.481789
    17  H    3.777597   3.605404   1.605696   3.548250   4.788070
    18  H    4.404908   1.935068   4.692580   5.663345   5.296278
    19  H    7.183483   4.852992   5.238872   7.477579   8.266942
    20  H    6.113259   4.803197   3.550815   5.907201   7.170245
    21  O    2.454935   2.553928   5.271431   4.601258   2.718820
    22  H    2.542475   3.517793   5.750532   4.650804   2.390294
    23  O    6.708460   3.868231   5.939113   7.608847   7.691791
    24  H    7.562058   4.720009   6.485496   8.337123   8.570989
                   11         12         13         14         15
    11  C    0.000000
    12  C    1.411782   0.000000
    13  C    2.425039   1.405663   0.000000
    14  C    2.789325   2.429959   1.396836   0.000000
    15  C    2.432444   2.827260   2.434909   1.399740   0.000000
    16  C    1.397845   2.437879   2.795951   2.410797   1.401019
    17  H    1.084690   2.165783   3.409718   3.873730   3.411657
    18  H    3.418958   2.174356   1.083774   2.138518   3.403086
    19  H    3.418077   3.914157   3.420369   2.166345   1.086898
    20  H    2.154675   3.420128   3.881644   3.395031   2.153606
    21  O    4.883586   3.750437   4.158108   5.480435   6.313840
    22  H    5.651197   4.570711   5.064330   6.411878   7.224701
    23  O    4.187056   3.677211   2.375650   1.399267   2.454922
    24  H    4.679958   4.411798   3.219353   1.989428   2.542459
                   16         17         18         19         20
    16  C    0.000000
    17  H    2.153747   0.000000
    18  H    3.879066   4.322907   0.000000
    19  H    2.165804   4.309503   4.296870   0.000000
    20  H    1.085724   2.477417   4.964756   2.487005   0.000000
    21  O    6.048727   5.061872   3.785832   7.350835   6.947129
    22  H    6.884526   5.706127   4.669043   8.275468   7.747542
    23  O    3.713695   5.271424   2.553931   2.718793   4.601245
    24  H    3.929561   5.750520   3.517803   2.390257   4.650785
                   21         22         23         24
    21  O    0.000000
    22  H    0.976065   0.000000
    23  O    6.186626   7.121679   0.000000
    24  H    7.110976   8.055870   0.976062   0.000000
 Symmetry turned off by external request.
 Stoichiometry    C12H10O2
 Framework group  C1[X(C12H10O2)]
 Deg. of freedom    66
 Full point group                 C1      NOp   1
 Rotational constants (GHZ):           1.5171410           0.5342467           0.4164053
 Standard basis: 6-31++G(d,p) (6D, 7F)
   326 basis functions,   528 primitive gaussians,   326 cartesian basis functions
    49 alpha electrons       49 beta electrons
       nuclear repulsion energy       874.1164618221 Hartrees.
 NAtoms=   24 NActive=   24 NUniq=   24 SFac= 1.00D+00 NAtFMM=   60 NAOKFM=F Big=F
 Integral buffers will be    131072 words long.
 Raffenetti 2 integral format.
 Two-electron integral symmetry is turned off.
 One-electron integrals computed using PRISM.
 NBasis=   326 RedAO= T EigKep=  1.05D-06  NBF=   326
 NBsUse=   324 1.00D-06 EigRej=  5.19D-07 NBFU=   324
 Initial guess from the checkpoint file:  "C:\Users\Administrator\Desktop\dataset_dft\C12H8O1\C12H8O1.chk"
 B after Tr=     0.008955    0.003748    0.085525
         Rot=    0.999988   -0.003667   -0.003115    0.000195 Ang=  -0.55 deg.
 ExpMin= 3.60D-02 ExpMax= 5.48D+03 ExpMxC= 8.25D+02 IAcc=3 IRadAn=         5 AccDes= 0.00D+00
 Harris functional with IExCor=  402 and IRadAn=       5 diagonalized for initial guess.
 HarFok:  IExCor=  402 AccDes= 0.00D+00 IRadAn=         5 IDoV= 1 UseB2=F ITyADJ=14
 ICtDFT=  3500011 ScaDFX=  1.000000  1.000000  1.000000  1.000000
 FoFCou: FMM=F IPFlag=           0 FMFlag=      100000 FMFlg1=           0
         NFxFlg=           0 DoJE=T BraDBF=F KetDBF=T FulRan=T
         wScrn=  0.000000 ICntrl=       500 IOpCl=  0 I1Cent=   200000004 NGrid=           0
         NMat0=    1 NMatS0=      1 NMatT0=    0 NMatD0=    1 NMtDS0=    0 NMtDT0=    0
 Symmetry not used in FoFCou.
 Requested convergence on RMS density matrix=1.00D-08 within 128 cycles.
 Requested convergence on MAX density matrix=1.00D-06.
 Requested convergence on             energy=1.00D-06.
 No special actions if energy rises.
 SCF Done:  E(RB3LYP) =  -611.604806863     A.U. after   18 cycles
            NFock= 18  Conv=0.30D-08     -V/T= 1.9961
 Variable Step   Value    
 -------- ---- -----------
    10       4    2.645617
 ---------------------------------------------------------------------------------------------------
                            Z-MATRIX (ANGSTROMS AND DEGREES)
   CD    Cent   Atom    N1       Length/X        N2       Alpha/Y        N3        Beta/Z          J
 ---------------------------------------------------------------------------------------------------
      1      1  C 
      2      2  C        1   1.396844(     1)
      3      3  C        2   1.405662(     2)      1  120.239(    24)
      4      4  C        3   1.411790(     3)      2  118.796(    25)      1    0.073(    46)      0
      5      5  C        4   1.397847(     4)      3  120.381(    26)      2   -0.122(    47)      0
      6      6  C        1   1.399746(     5)      2  121.074(    27)      3    0.033(    48)      0
      7      7  H        2   1.083774(     6)      1  118.561(    28)      6 -178.308(    49)      0
      8      8  H        4   1.084691(     7)      3  119.775(    29)      2  178.228(    50)      0
      9      9  H        5   1.085724(     8)      4  119.830(    30)      3  179.453(    51)      0
     10     10  H        6   1.086900(     9)      1  120.678(    31)      2  179.987(    52)      0
     11     11  C        3   1.400000(    10)      2  140.298(    32)      1 -152.173(    53)      0
     12     12  C       11   1.411782(    11)      3   30.486(    33)      2  -56.902(    54)      0
     13     13  C       12   1.405663(    12)     11  118.795(    34)      3  179.895(    55)      0
     14     14  C       13   1.396836(    13)     12  120.239(    35)     11    0.062(    56)      0
     15     15  C       14   1.399740(    14)     13  121.074(    36)     12    0.028(    57)      0
     16     16  C       11   1.397845(    15)      3  150.867(    37)      2  -56.905(    58)      0
     17     17  H       11   1.084690(    16)      3   89.300(    38)      2  121.659(    59)      0
     18     18  H       13   1.083774(    17)     12  121.179(    39)     11  178.368(    60)      0
     19     19  H       15   1.086898(    18)     14  120.678(    40)     13  179.943(    61)      0
     20     20  H       16   1.085724(    19)     11  119.830(    41)      3  179.465(    62)      0
     21     21  O        1   1.399266(    20)      2  116.342(    42)      3  179.593(    63)      0
     22     22  H       21   0.976065(    21)      1  112.542(    43)      2 -179.287(    64)      0
     23     23  O       14   1.399267(    22)     13  116.343(    44)     12  179.587(    65)      0
     24     24  H       23   0.976062(    23)     14  112.542(    45)     13 -179.325(    66)      0
 ---------------------------------------------------------------------------------------------------
                         Z-Matrix orientation:                         
 ---------------------------------------------------------------------
 Center     Atomic      Atomic             Coordinates (Angstroms)
 Number     Number       Type             X           Y           Z
 ---------------------------------------------------------------------
      1          6           0        0.000000    0.000000    0.000000
      2          6           0        0.000000    0.000000    1.396844
      3          6           0        1.214394    0.000000    2.104751
      4          6           0        2.424975    0.001573    1.378361
      5          6           0        2.410729    0.000541   -0.019413
      6          6           0        1.198885   -0.000682   -0.722471
      7          1           0       -0.951489   -0.027572    1.914990
      8          1           0        3.371026    0.030709    1.908165
      9          1           0        3.346990    0.010767   -0.569058
     10          1           0        1.191370   -0.000895   -1.809344
     11          6           0        1.746647   -0.417473    3.330484
     12          6           0        0.793196    0.335475    2.611368
     13          6           0       -0.155503    1.086728    3.326543
     14          6           0       -0.147147    1.083791    4.723352
     15          6           0        0.798299    0.339617    5.438620
     16          6           0        1.744419   -0.410831    4.728312
     17          1           0        2.467885   -1.025512    2.795079
     18          1           0       -0.888243    1.699111    2.814054
     19          1           0        0.799471    0.342725    6.525513
     20          1           0        2.476281   -1.000066    5.272351
     21          8           0       -1.253934   -0.008905   -0.620898
     22          1           0       -1.189198   -0.019662   -1.594754
     23          8           0       -1.121781    1.866832    5.351748
     24          1           0       -1.058859    1.832624    6.325179
 ---------------------------------------------------------------------
                    Distance matrix (angstroms):
                    1          2          3          4          5
     1  C    0.000000
     2  C    1.396844   0.000000
     3  C    2.429965   1.405662   0.000000
     4  C    2.789334   2.425046   1.411790   0.000000
     5  C    2.410808   2.795961   2.437887   1.397847   0.000000
     6  C    1.399746   2.434916   2.827264   2.432447   1.401020
     7  H    2.138522   1.083774   2.174354   3.418966   3.879074
     8  H    3.873739   3.409723   2.165792   1.084691   2.153749
     9  H    3.395038   3.881652   3.420137   2.154678   1.085724
    10  H    2.166354   3.420381   3.914163   3.418078   2.165801
    11  C    3.783806   2.638945   1.400000   2.108676   3.440575
    12  C    2.749717   1.488883   0.739331   2.072316   3.106381
    13  C    3.503006   2.220113   2.133160   3.410548   4.354397
    14  C    4.848330   3.501701   3.144116   4.356141   5.496361
    15  C    5.507377   4.133833   3.376856   4.387032   5.701318
    16  C    5.056552   3.782918   2.707911   3.443168   4.811870
    17  H    3.867117   3.016155   1.760531   1.750381   2.996234
    18  H    3.405122   2.384206   2.794847   3.990020   4.668714
    19  H    6.583232   5.201910   4.453398   5.408495   6.749022
    20  H    5.910142   4.706554   3.553333   4.021078   5.385933
    21  O    1.399266   2.375650   3.677212   4.187066   3.713709
    22  H    1.989427   3.219353   4.411800   4.679969   3.929578
    23  O    5.777946   4.514945   4.414268   5.643268   6.694105
    24  H    6.669902   5.363598   5.132076   6.321460   7.459787
                    6          7          8          9         10
     6  C    0.000000
     7  H    3.403091   0.000000
     8  H    3.411660   4.322913   0.000000
     9  H    2.153607   4.964764   2.477419   0.000000
    10  H    1.086900   4.296885   4.309498   2.486995   0.000000
    11  C    4.110986   3.071740   2.205100   4.236852   5.186493
    12  C    3.375213   1.913288   2.689346   4.091748   4.451335
    13  C    4.405830   1.966658   3.945045   5.347977   5.419809
    14  C    5.713568   3.125538   4.627289   6.431949   6.756056
    15  C    6.183471   3.951272   4.379322   6.534230   7.266597
    16  C    5.493347   3.915302   3.285428   5.550505   6.573801
    17  H    3.877343   3.669136   1.648601   3.628239   4.886721
    18  H    4.444368   1.947755   4.663215   5.677425   5.347020
    19  H    7.267099   4.945696   5.294351   7.545395   8.351138
    20  H    6.210345   4.895633   3.630539   5.991825   7.266343
    21  O    2.454935   2.553928   5.271431   4.601258   2.718820
    22  H    2.542475   3.517793   5.750532   4.650804   2.390294
    23  O    6.765296   3.927986   5.951045   7.646623   7.753730
    24  H    7.624158   4.787654   6.510054   8.382194   8.636886
                   11         12         13         14         15
    11  C    0.000000
    12  C    1.411782   0.000000
    13  C    2.425039   1.405663   0.000000
    14  C    2.789325   2.429959   1.396836   0.000000
    15  C    2.432444   2.827260   2.434909   1.399740   0.000000
    16  C    1.397845   2.437879   2.795951   2.410797   1.401019
    17  H    1.084690   2.165783   3.409718   3.873730   3.411657
    18  H    3.418958   2.174356   1.083774   2.138518   3.403086
    19  H    3.418077   3.914157   3.420369   2.166345   1.086898
    20  H    2.154675   3.420128   3.881644   3.395031   2.153606
    21  O    4.978337   3.841469   4.241374   5.565965   6.407096
    22  H    5.747644   4.663418   5.148960   6.497841   7.317621
    23  O    4.187056   3.677211   2.375650   1.399267   2.454922
    24  H    4.679958   4.411798   3.219353   1.989428   2.542459
                   16         17         18         19         20
    16  C    0.000000
    17  H    2.153747   0.000000
    18  H    3.879066   4.322907   0.000000
    19  H    2.165804   4.309503   4.296870   0.000000
    20  H    1.085724   2.477417   4.964756   2.487005   0.000000
    21  O    6.145382   5.153089   3.853562   7.443877   7.044664
    22  H    6.981425   5.801433   4.741555   8.368086   7.845639
[...]
    24  H    7.778432   6.412152   5.953257   7.042196   8.304624
                    6          7          8          9         10
     6  C    0.000000
     7  H    3.403091   0.000000
     8  H    3.411660   4.322913   0.000000
     9  H    2.153607   4.964764   2.477419   0.000000
    10  H    1.086900   4.296885   4.309498   2.486995   0.000000
    11  C    5.549160   4.339312   3.065380   5.385274   6.607255
    12  C    4.651365   3.066736   2.849005   4.913535   5.737652
    13  C    5.456999   3.120306   4.070871   6.010461   6.527248
    14  C    6.833252   4.395285   5.108952   7.250912   7.909229
    15  C    7.477067   5.365151   5.243167   7.584502   8.563749
    16  C    6.908896   5.327912   4.357882   6.746953   7.977091
    17  H    5.374666   4.776700   2.685561   4.916771   6.371532
    18  H    5.233571   2.632997   4.474879   6.085088   6.252329
    19  H    8.563604   6.362826   6.260659   8.637989   9.650349
    20  H    7.675622   6.309918   4.916168   7.307943   8.718352
    21  O    2.454935   2.553928   5.271431   4.601258   2.718820
    22  H    2.542475   3.517793   5.750532   4.650804   2.390294
    23  O    7.723738   4.981669   6.320042   8.337566   8.767574
    24  H    8.641402   5.913437   7.040452   9.163215   9.695616
                   11         12         13         14         15
    11  C    0.000000
    12  C    1.411782   0.000000
    13  C    2.425039   1.405663   0.000000
    14  C    2.789325   2.429959   1.396836   0.000000
    15  C    2.432444   2.827260   2.434909   1.399740   0.000000
    16  C    1.397845   2.437879   2.795951   2.410797   1.401019
    17  H    1.084690   2.165783   3.409718   3.873730   3.411657
    18  H    3.418958   2.174356   1.083774   2.138518   3.403086
    19  H    3.418077   3.914157   3.420369   2.166345   1.086898
    20  H    2.154675   3.420128   3.881644   3.395031   2.153606
    21  O    6.418740   5.246277   5.556992   6.895785   7.825952
    22  H    7.205986   6.081813   6.471255   7.827404   8.730215
    23  O    4.187056   3.677211   2.375650   1.399267   2.454922
    24  H    4.679958   4.411798   3.219353   1.989428   2.542459
                   16         17         18         19         20
    16  C    0.000000
    17  H    2.153747   0.000000
    18  H    3.879066   4.322907   0.000000
    19  H    2.165804   4.309503   4.296870   0.000000
    20  H    1.085724   2.477417   4.964756   2.487005   0.000000
    21  O    7.605597   6.552173   5.001121   8.857726   8.514545
    22  H    8.443585   7.246221   5.926049   9.774830   9.321947
    23  O    3.713695   5.271424   2.553931   2.718793   4.601245
    24  H    3.929561   5.750520   3.517803   2.390257   4.650785
                   21         22         23         24
    21  O    0.000000
    22  H    0.976065   0.000000
    23  O    7.457791   8.408450   0.000000
    24  H    8.411107   9.365745   0.976062   0.000000
 Symmetry turned off by external request.
 Stoichiometry    C12H10O2
 Framework group  C1[X(C12H10O2)]
 Deg. of freedom    66
 Full point group                 C1      NOp   1
 Rotational constants (GHZ):           1.5002116           0.3351818           0.2846745
 Standard basis: 6-31++G(d,p) (6D, 7F)
   326 basis functions,   528 primitive gaussians,   326 cartesian basis functions
    49 alpha electrons       49 beta electrons
       nuclear repulsion energy       769.8323969836 Hartrees.
 NAtoms=   24 NActive=   24 NUniq=   24 SFac= 1.00D+00 NAtFMM=   60 NAOKFM=F Big=F
 Integral buffers will be    131072 words long.
 Raffenetti 2 integral format.
 Two-electron integral symmetry is turned off.
 One-electron integrals computed using PRISM.
 NBasis=   326 RedAO= T EigKep=  1.02D-06  NBF=   326
 NBsUse=   325 1.00D-06 EigRej=  7.80D-07 NBFU=   325
 Initial guess from the checkpoint file:  "C:\Users\Administrator\Desktop\dataset_dft\C12H8O1\C12H8O1.chk"
 B after Tr=     0.011217   -0.001245    0.089608
         Rot=    0.999995   -0.002399   -0.002201   -0.000002 Ang=  -0.37 deg.
 ExpMin= 3.60D-02 ExpMax= 5.48D+03 ExpMxC= 8.25D+02 IAcc=3 IRadAn=         5 AccDes= 0.00D+00
 Harris functional with IExCor=  402 and IRadAn=       5 diagonalized for initial guess.
 HarFok:  IExCor=  402 AccDes= 0.00D+00 IRadAn=         5 IDoV= 1 UseB2=F ITyADJ=14
 ICtDFT=  3500011 ScaDFX=  1.000000  1.000000  1.000000  1.000000
 FoFCou: FMM=F IPFlag=           0 FMFlag=      100000 FMFlg1=           0
         NFxFlg=           0 DoJE=T BraDBF=F KetDBF=T FulRan=T
         wScrn=  0.000000 ICntrl=       500 IOpCl=  0 I1Cent=   200000004 NGrid=           0
         NMat0=    1 NMatS0=      1 NMatT0=    0 NMatD0=    1 NMtDS0=    0 NMtDT0=    0
 Symmetry not used in FoFCou.
 Requested convergence on RMS density matrix=1.00D-08 within 128 cycles.
 Requested convergence on MAX density matrix=1.00D-06.
 Requested convergence on             energy=1.00D-06.
 No special actions if energy rises.
 SCF Done:  E(RB3LYP) =  -613.747271270     A.U. after   13 cycles
            NFock= 13  Conv=0.58D-08     -V/T= 2.0106
 Variable Step   Value    
 -------- ---- -----------
    10      20    5.669178
 ---------------------------------------------------------------------------------------------------
                            Z-MATRIX (ANGSTROMS AND DEGREES)
   CD    Cent   Atom    N1       Length/X        N2       Alpha/Y        N3        Beta/Z          J
 ---------------------------------------------------------------------------------------------------
      1      1  C 
      2      2  C        1   1.396844(     1)
      3      3  C        2   1.405662(     2)      1  120.239(    24)
      4      4  C        3   1.411790(     3)      2  118.796(    25)      1    0.073(    46)      0
      5      5  C        4   1.397847(     4)      3  120.381(    26)      2   -0.122(    47)      0
      6      6  C        1   1.399746(     5)      2  121.074(    27)      3    0.033(    48)      0
      7      7  H        2   1.083774(     6)      1  118.561(    28)      6 -178.308(    49)      0
      8      8  H        4   1.084691(     7)      3  119.775(    29)      2  178.228(    50)      0
      9      9  H        5   1.085724(     8)      4  119.830(    30)      3  179.453(    51)      0
     10     10  H        6   1.086900(     9)      1  120.678(    31)      2  179.987(    52)      0
     11     11  C        3   3.000000(    10)      2  140.298(    32)      1 -152.173(    53)      0
     12     12  C       11   1.411782(    11)      3   30.486(    33)      2  -56.902(    54)      0
     13     13  C       12   1.405663(    12)     11  118.795(    34)      3  179.895(    55)      0
     14     14  C       13   1.396836(    13)     12  120.239(    35)     11    0.062(    56)      0
     15     15  C       14   1.399740(    14)     13  121.074(    36)     12    0.028(    57)      0
     16     16  C       11   1.397845(    15)      3  150.867(    37)      2  -56.905(    58)      0
     17     17  H       11   1.084690(    16)      3   89.300(    38)      2  121.659(    59)      0
     18     18  H       13   1.083774(    17)     12  121.179(    39)     11  178.368(    60)      0
     19     19  H       15   1.086898(    18)     14  120.678(    40)     13  179.943(    61)      0
     20     20  H       16   1.085724(    19)     11  119.830(    41)      3  179.465(    62)      0
     21     21  O        1   1.399266(    20)      2  116.342(    42)      3  179.593(    63)      0
     22     22  H       21   0.976065(    21)      1  112.542(    43)      2 -179.287(    64)      0
     23     23  O       14   1.399267(    22)     13  116.343(    44)     12  179.587(    65)      0
     24     24  H       23   0.976062(    23)     14  112.542(    45)     13 -179.325(    66)      0
 ---------------------------------------------------------------------------------------------------
                         Z-Matrix orientation:                         
 ---------------------------------------------------------------------
 Center     Atomic      Atomic             Coordinates (Angstroms)
 Number     Number       Type             X           Y           Z
 ---------------------------------------------------------------------
      1          6           0        0.000000    0.000000    0.000000
      2          6           0        0.000000    0.000000    1.396844
      3          6           0        1.214394    0.000000    2.104751
      4          6           0        2.424975    0.001573    1.378361
      5          6           0        2.410729    0.000541   -0.019413
      6          6           0        1.198885   -0.000682   -0.722471
      7          1           0       -0.951489   -0.027572    1.914990
      8          1           0        3.371026    0.030709    1.908165
      9          1           0        3.346990    0.010767   -0.569058
     10          1           0        1.191370   -0.000895   -1.809344
     11          6           0        2.354938   -0.894586    4.731322
     12          6           0        1.401487   -0.141638    4.012206
     13          6           0        0.452787    0.609616    4.727381
     14          6           0        0.461143    0.606678    6.124189
     15          6           0        1.406589   -0.137496    6.839458
     16          6           0        2.352710   -0.887944    6.129150
     17          1           0        3.076175   -1.502625    4.195917
     18          1           0       -0.279953    1.221998    4.214892
     19          1           0        1.407761   -0.134387    7.926351
     20          1           0        3.084571   -1.477178    6.673188
     21          8           0       -1.253934   -0.008905   -0.620898
     22          1           0       -1.189198   -0.019662   -1.594754
     23          8           0       -0.513491    1.389720    6.752586
     24          1           0       -0.450569    1.355512    7.726017
 ---------------------------------------------------------------------
                    Distance matrix (angstroms):
                    1          2          3          4          5
     1  C    0.000000
     2  C    1.396844   0.000000
     3  C    2.429965   1.405662   0.000000
     4  C    2.789334   2.425046   1.411790   0.000000
     5  C    2.410808   2.795961   2.437887   1.397847   0.000000
     6  C    1.399746   2.434916   2.827264   2.432447   1.401020
     7  H    2.138522   1.083774   2.174354   3.418966   3.879074
     8  H    3.873739   3.409723   2.165792   1.084691   2.153749
     9  H    3.395038   3.881652   3.420137   2.154678   1.085724
    10  H    2.166354   3.420381   3.914163   3.418078   2.165801
    11  C    5.360170   4.179086   3.000000   3.471362   4.834651
    12  C    4.252296   2.970580   1.921834   2.829341   4.158453
    13  C    4.787983   3.416011   2.798189   3.933850   5.170741
    14  C    6.171419   4.788372   4.134166   5.171622   6.473959
    15  C    6.983952   5.623117   4.740600   5.556980   6.933359
    16  C    6.624965   5.358956   4.275511   4.833886   6.212697
    17  H    5.415390   4.422165   3.177591   3.259646   4.524526
    18  H    4.397382   3.084323   2.859903   4.105116   5.163436
    19  H    8.051515   6.680892   5.826360   6.627924   8.009951
    20  H    7.498538   6.287802   5.152692   5.536874   6.886845
    21  O    1.399266   2.375650   3.677212   4.187066   3.713709
    22  H    1.989427   3.219353   4.411800   4.679969   3.929578
    23  O    6.913206   5.556885   5.149687   6.280432   7.506055
    24  H    7.856956   6.488364   6.017320   7.098918   8.367477
                    6          7          8          9         10
     6  C    0.000000
     7  H    3.403091   0.000000
     8  H    3.411660   4.322913   0.000000
     9  H    2.153607   4.964764   2.477419   0.000000
    10  H    1.086900   4.296885   4.309498   2.486995   0.000000
    11  C    5.646183   4.428984   3.139877   5.467893   6.703200
    12  C    4.741105   3.154016   2.887175   4.979577   5.827040
    13  C    5.534439   3.207420   4.098687   6.065253   6.606588
    14  C    6.913024   4.484993   5.155000   7.313192   7.990203
    15  C    7.566017   5.461044   5.310834   7.659846   8.652558
    16  C    7.004516   5.423755   4.438199   6.830978   8.071881
    17  H    5.474540   4.858033   2.769812   5.006863   6.470768
    18  H    5.297118   2.702209   4.479934   6.124375   6.320734
    19  H    8.652377   6.458633   6.332475   8.715139   9.739015
    20  H    7.773778   6.405591   5.006119   7.398174   8.815724
    21  O    2.454935   2.553928   5.271431   4.601258   2.718820
    22  H    2.542475   3.517793   5.750532   4.650804   2.390294
    23  O    7.793710   5.059930   6.356477   8.391144   8.840080
    24  H    8.714178   5.994320   7.085697   9.221608   9.770308
                   11         12         13         14         15
    11  C    0.000000
    12  C    1.411782   0.000000
    13  C    2.425039   1.405663   0.000000
    14  C    2.789325   2.429959   1.396836   0.000000
    15  C    2.432444   2.827260   2.434909   1.399740   0.000000
    16  C    1.397845   2.437879   2.795951   2.410797   1.401019
    17  H    1.084690   2.165783   3.409718   3.873730   3.411657
    18  H    3.418958   2.174356   1.083774   2.138518   3.403086
    19  H    3.418077   3.914157   3.420369   2.166345   1.086898
    20  H    2.154675   3.420128   3.881644   3.395031   2.153606
    21  O    6.515723   5.341772   5.647969   6.986890   7.921605
    22  H    7.303809   6.177744   6.562126   7.918208   8.825413
    23  O    4.187056   3.677211   2.375650   1.399267   2.454922
    24  H    4.679958   4.411798   3.219353   1.989428   2.542459
                   16         17         18         19         20
    16  C    0.000000
    17  H    2.153747   0.000000
    18  H    3.879066   4.322907   0.000000
    19  H    2.165804   4.309503   4.296870   0.000000
    20  H    1.085724   2.477417   4.964756   2.487005   0.000000
    21  O    7.703489   6.647011   5.084154   8.952979   8.612906
    22  H    8.541529   7.343327   6.010028   9.869590   9.420633
    23  O    3.713695   5.271424   2.553931   2.718793   4.601245
    24  H    3.929561   5.750520   3.517803   2.390257   4.650785
                   21         22         23         24
    21  O    0.000000
    22  H    0.976065   0.000000
    23  O    7.541397   8.492410   0.000000
    24  H    8.495765   9.450579   0.976062   0.000000
 Symmetry turned off by external request.
 Stoichiometry    C12H10O2
 Framework group  C1[X(C12H10O2)]
 Deg. of freedom    66
 Full point group                 C1      NOp   1
 Rotational constants (GHZ):           1.4997762           0.3258493           0.2779449
 Standard basis: 6-31++G(d,p) (6D, 7F)
   326 basis functions,   528 primitive gaussians,   326 cartesian basis functions
    49 alpha electrons       49 beta electrons
       nuclear repulsion energy       765.2007597040 Hartrees.
 NAtoms=   24 NActive=   24 NUniq=   24 SFac= 1.00D+00 NAtFMM=   60 NAOKFM=F Big=F
 Integral buffers will be    131072 words long.
 Raffenetti 2 integral format.
 Two-electron integral symmetry is turned off.
 One-electron integrals computed using PRISM.
 NBasis=   326 RedAO= T EigKep=  1.08D-06  NBF=   326
 NBsUse=   325 1.00D-06 EigRej=  8.31D-07 NBFU=   325
 Initial guess from the checkpoint file:  "C:\Users\Administrator\Desktop\dataset_dft\C12H8O1\C12H8O1.chk"
 B after Tr=     0.011420   -0.001562    0.089740
         Rot=    0.999995   -0.002339   -0.002151   -0.000009 Ang=  -0.36 deg.
 ExpMin= 3.60D-02 ExpMax= 5.48D+03 ExpMxC= 8.25D+02 IAcc=3 IRadAn=         5 AccDes= 0.00D+00
 Harris functional with IExCor=  402 and IRadAn=       5 diagonalized for initial guess.
 HarFok:  IExCor=  402 AccDes= 0.00D+00 IRadAn=         5 IDoV= 1 UseB2=F ITyADJ=14
 ICtDFT=  3500011 ScaDFX=  1.000000  1.000000  1.000000  1.000000
 FoFCou: FMM=F IPFlag=           0 FMFlag=      100000 FMFlg1=           0
         NFxFlg=           0 DoJE=T BraDBF=F KetDBF=T FulRan=T
         wScrn=  0.000000 ICntrl=       500 IOpCl=  0 I1Cent=   200000004 NGrid=           0
         NMat0=    1 NMatS0=      1 NMatT0=    0 NMatD0=    1 NMtDS0=    0 NMtDT0=    0
 Symmetry not used in FoFCou.
 Requested convergence on RMS density matrix=1.00D-08 within 128 cycles.
 Requested convergence on MAX density matrix=1.00D-06.
 Requested convergence on             energy=1.00D-06.
 No special actions if energy rises.
 SCF Done:  E(RB3LYP) =  -613.730396232     A.U. after   13 cycles
            NFock= 13  Conv=0.56D-08     -V/T= 2.0107
 Scan completed.
 
 Summary of the potential surface scan:
   N      B10         SCF    
 ----  ---------  -----------
    1     1.0000   -611.36765
    2     1.1000   -611.40641
    3     1.2000   -611.46814
    4     1.3000   -611.60481
    5     1.4000   -611.82380
    6     1.5000   -612.11462
    7     1.6000   -612.46700
    8     1.7000   -612.81579
    9     1.8000   -613.11301
   10     1.9000   -613.34551
   11     2.0000   -613.51614
   12     2.1000   -613.63434
   13     2.2000   -613.71119
   14     2.3000   -613.75705
   15     2.4000   -613.78057
   16     2.5000   -613.78852
   17     2.6000   -613.78597
   18     2.7000   -613.77662
   19     2.8000   -613.76309
   20     2.9000   -613.74727
   21     3.0000   -613.73040
 ----  ---------  -----------
  
 1|1|UNPC-BF-202112021916|Scan|RB3LYP|6-31++G(d,p)|C12H10O2|ADMINISTRAT
 OR|22-Mar-2023|1||# scan b3lyp/6-31++g(d,p) nosymm||Title Card Require
 d||0,1|C|C,1,B1|C,2,B2,1,A1|C,3,B3,2,A2,1,D1,0|C,4,B4,3,A3,2,D2,0|C,1,
 B5,2,A4,3,D3,0|H,2,B6,1,A5,6,D4,0|H,4,B7,3,A6,2,D5,0|H,5,B8,4,A7,3,D6,
 0|H,6,B9,1,A8,2,D7,0|C,3,B10,2,A9,1,D8,0|C,11,B11,3,A10,2,D9,0|C,12,B1
 2,11,A11,3,D10,0|C,13,B13,12,A12,11,D11,0|C,14,B14,13,A13,12,D12,0|C,1
 1,B15,3,A14,2,D13,0|H,11,B16,3,A15,2,D14,0|H,13,B17,12,A16,11,D15,0|H,
 15,B18,14,A17,13,D16,0|H,16,B19,11,A18,3,D17,0|O,1,B20,2,A19,3,D18,0|H
 ,21,B21,1,A20,2,D19,0|O,14,B22,13,A21,12,D20,0|H,23,B23,14,A22,13,D21,
 0||B1=1.39684352|B2=1.40566177|B3=1.41179032|B4=1.39784746|B5=1.399746
 04|B6=1.08377443|B7=1.08469057|B8=1.08572449|B9=1.0868998|B10=1.,s,20,
 0.1|B11=1.41178219|B12=1.40566277|B13=1.39683626|B14=1.39974003|B15=1.
 39784535|B16=1.08469048|B17=1.08377405|B18=1.08689849|B19=1.08572389|B
 20=1.39926578|B21=0.9760646|B22=1.39926674|B23=0.9760621|A1=120.239237
 13|A2=118.79555313|A3=120.38119222|A4=121.07395517|A5=118.56101291|A6=
 119.7754327|A7=119.82979799|A8=120.67782004|A9=140.29771399|A10=30.485
 52467|A11=118.7954868|A12=120.23916573|A13=121.07427695|A14=150.866744
 39|A15=89.30036269|A16=121.17852371|A17=120.67759185|A18=119.82972693|
 A19=116.34219571|A20=112.54208895|A21=116.34260438|A22=112.54228066|D1
 =0.07286603|D2=-0.12156953|D3=0.03261648|D4=-178.30755606|D5=178.22807
 918|D6=179.45253791|D7=179.98668724|D8=-152.17279942|D9=-56.90229417|D
 10=179.89453484|D11=0.06188313|D12=0.02845186|D13=-56.90496464|D14=121
 .65928858|D15=178.36768164|D16=179.94281548|D17=179.46521627|D18=179.5
 9313149|D19=-179.28709963|D20=179.5865913|D21=-179.32487547||Version=E
 M64W-G16RevA.03|HF=-611.3676542,-611.4064115,-611.4681425,-611.6048069
 ,-611.8237975,-612.1146218,-612.4669961,-612.8157859,-613.1130135,-613
 .3455061,-613.5161395,-613.6343405,-613.711195,-613.7570529,-613.78057
 06,-613.78852,-613.7859728,-613.7766182,-613.7630905,-613.7472713,-613
 .7303962|RMSD=4.411e-009,4.660e-009,4.717e-009,2.977e-009,3.714e-009,8
 .030e-009,4.691e-009,4.914e-009,8.849e-009,4.523e-009,6.318e-009,6.038
 e-009,4.601e-009,3.752e-009,9.229e-009,7.216e-009,4.546e-009,3.578e-00
 9,3.900e-009,5.812e-009,5.557e-009|PG=C01 [X(C12H10O2)]||@


 DEPRESSION IS WAITING FOR YOUR SHIP TO COME IN,
 AND FINDING OUT IT'S THE TITANIC.
 Job cpu time:       0 days  0 hours 28 minutes 53.0 seconds.
 Elapsed time:       0 days  0 hours 28 minutes 30.0 seconds.
 File lengths (MBytes):  RWF=     69 Int=      0 D2E=      0 Chk=     14 Scr=      1
 Normal termination of Gaussian 16 at Wed Mar 22 15:26:33 2023.
