LAMMPS data file Created

21 atoms

3 atom types

-20 20.0 xlo xhi
-20 20.0 ylo yhi
-20 20.0 zlo zhi

Masses

1 12.011
2 1.008
3 15.999

Atoms

1 1 1 0 0.000000 0.000000 0.000000
2 1 1 0 0.000000 0.000000 1.395462
3 1 1 0 1.229856 0.000000 2.066445
4 1 1 0 2.418890 0.000000 1.311636
5 1 1 0 2.443293 0.000000 -0.076918
6 1 1 0 1.205107 0.000000 -0.725615
7 1 2 0 -0.935130 0.000000 1.947498
8 1 1 0 3.003417 0.000000 3.224312
9 1 1 0 1.595413 0.000000 3.263250
10 1 1 0 0.950862 0.000008 4.507037
11 1 1 0 1.730808 0.000016 5.664124
12 1 1 0 3.135750 0.000015 5.591918
13 1 1 0 3.799777 0.000005 4.362234
14 1 2 0 -0.133141 0.000003 4.572026
15 1 2 0 3.717180 0.000028 6.508918
16 1 2 0 1.174949 -0.000005 -1.810943
17 1 2 0 3.379805 0.000013 -0.623905
18 1 2 0 4.882062 -0.000006 4.291744
19 1 2 0 -0.944160 0.000000 -0.536070
20 1 2 0 1.247795 0.000022 6.636451
21 1 3 0 3.533285 0.000000 2.122214
