LAMMPS data file Created

24 atoms

3 atom types

-20 20.0 xlo xhi
-20 20.0 ylo yhi
-20 20.0 zlo zhi

Masses

1 12.011
2 1.008
3 15.999

Atoms

1 1 1 0 0.000000 0.000000 0.000000
2 1 1 0 0.000000 0.000000 1.399724
3 1 1 0 1.213659 0.000000 2.087157
4 1 1 0 2.440319 0.003028 1.409585
5 1 1 0 2.411880 -0.008726 0.010726
6 1 1 0 1.205931 -0.007872 -0.696837
7 1 2 0 -0.937257 0.000555 -0.548338
8 1 2 0 -0.936484 0.000131 1.948768
9 1 2 0 1.218266 0.003438 3.174854
10 1 2 0 1.236295 -0.017084 -1.781507
11 1 1 0 3.758396 0.052222 2.150130
12 1 2 0 3.743924 -0.656648 2.987894
13 1 2 0 3.886703 1.047911 2.601910
14 1 1 0 6.010798 -0.514174 0.413501
15 1 1 0 7.291211 -0.764928 0.924842
16 1 1 0 8.381098 -0.992511 0.084673
17 1 1 0 8.198043 -0.974579 -1.302913
18 1 1 0 6.933117 -0.738400 -1.835920
19 1 1 0 5.853227 -0.513231 -0.976796
20 1 2 0 7.429615 -0.774773 2.003668
21 1 2 0 9.363213 -1.182143 0.506505
22 1 2 0 9.037468 -1.149932 -1.969054
23 1 2 0 6.759915 -0.727820 -2.907090
24 1 3 0 3.558992 -0.016569 -0.754755
