LAMMPS data file Created

24 atoms

3 atom types

-20 20.0 xlo xhi
-20 20.0 ylo yhi
-20 20.0 zlo zhi

Masses

1 12.011
2 1.008
3 15.999

Atoms

1 1 1 0 0.000000 0.000000 0.000000
2 1 1 0 0.000000 0.000000 1.396844
3 1 1 0 1.214394 0.000000 2.104751
4 1 1 0 2.424975 0.001573 1.378361
5 1 1 0 2.410729 0.000541 -0.019413
6 1 1 0 1.198885 -0.000682 -0.722471
7 1 2 0 -0.951489 -0.027572 1.914990
8 1 2 0 3.371026 0.030709 1.908165
9 1 2 0 3.346990 0.010767 -0.569058
10 1 2 0 1.191370 -0.000895 -1.809344
11 1 1 0 2.164847 -0.745488 4.293560
12 1 1 0 1.211396 0.007460 3.574444
13 1 1 0 0.262697 0.758713 4.289619
14 1 1 0 0.271052 0.755776 5.686428
15 1 1 0 1.216498 0.011602 6.401696
16 1 1 0 2.162619 -0.738846 5.691388
17 1 2 0 2.886084 -1.353527 3.758155
18 1 2 0 -0.470044 1.371096 3.777130
19 1 2 0 1.217671 0.014710 7.488589
20 1 2 0 2.894481 -1.328080 6.235427
21 1 3 0 -1.253934 -0.008905 -0.620898
22 1 2 0 -1.189198 -0.019662 -1.594754
23 1 3 0 -0.703582 1.538817 6.314824
24 1 2 0 -0.640660 1.504610 7.288255
