LAMMPS data file Created

24 atoms

3 atom types

-20 20.0 xlo xhi
-20 20.0 ylo yhi
-20 20.0 zlo zhi

Masses

1 12.011
2 1.008
3 15.999

Atoms

1 1 1 0 0.000000 0.000000 0.000000
2 1 1 0 0.000000 0.000000 1.396844
3 1 1 0 1.214394 0.000000 2.104751
4 1 1 0 2.424975 0.001573 1.378361
5 1 1 0 2.410729 0.000541 -0.019413
6 1 1 0 1.198885 -0.000682 -0.722471
7 1 2 0 -0.951489 -0.027572 1.914990
8 1 2 0 3.371026 0.030709 1.908165
9 1 2 0 3.346990 0.010767 -0.569058
10 1 2 0 1.191370 -0.000895 -1.809344
11 1 1 0 1.670611 -0.357834 3.155380
12 1 1 0 0.717160 0.395114 2.436263
13 1 1 0 -0.231539 1.146367 3.151439
14 1 1 0 -0.223183 1.143430 4.548247
15 1 1 0 0.722263 0.399256 5.263515
16 1 1 0 1.668383 -0.351192 4.553207
17 1 2 0 2.391849 -0.965873 2.619974
18 1 2 0 -0.964279 1.758750 2.638949
19 1 2 0 0.723435 0.402364 6.350408
20 1 2 0 2.400245 -0.940427 5.097246
21 1 3 0 -1.253934 -0.008905 -0.620898
22 1 2 0 -1.189198 -0.019662 -1.594754
23 1 3 0 -1.197817 1.926471 5.176643
24 1 2 0 -1.134896 1.892263 6.150074
