LAMMPS data file Created

22 atoms

3 atom types

-20 20.0 xlo xhi
-20 20.0 ylo yhi
-20 20.0 zlo zhi

Masses

1 12.011
2 1.008
3 15.999

Atoms

1 1 1 0 0.000000 0.000000 0.000000
2 1 1 0 0.000000 0.000000 1.401724
3 1 1 0 1.241488 0.000000 2.063361
4 1 1 0 2.456750 -0.000177 1.366439
5 1 1 0 2.407463 -0.000387 -0.038442
6 1 1 0 1.193111 -0.000277 -0.743693
7 1 2 0 1.267147 0.000235 3.150805
8 1 2 0 -1.741966 0.000329 -0.982627
9 1 1 0 1.171532 -0.000268 -2.257221
10 1 2 0 0.141536 -0.000091 -2.626230
11 1 2 0 1.663642 -0.888595 -2.680325
12 1 2 0 1.663947 0.887899 -2.680306
13 1 1 0 -1.295637 -0.000528 2.186489
14 1 2 0 -1.370506 0.878733 2.839481
15 1 2 0 -1.377295 -0.888347 2.827079
16 1 2 0 -2.163344 0.007384 1.518195
17 1 1 0 3.787241 -0.000228 2.078715
18 1 2 0 4.383478 -0.879688 1.806822
19 1 2 0 3.646388 0.001770 3.164181
20 1 2 0 4.385230 0.877024 1.803694
21 1 3 0 3.651135 -0.000610 -0.693127
22 1 2 0 3.563909 -0.000647 -1.663651
