LAMMPS data file Created

21 atoms

3 atom types

-20 20.0 xlo xhi
-20 20.0 ylo yhi
-20 20.0 zlo zhi

Masses

1 12.011
2 1.008
3 15.999

Atoms

1 1 1 0 0.000000 0.000000 0.000000
2 1 1 0 0.000000 0.000000 1.395462
3 1 1 0 1.229856 0.000000 2.066445
4 1 1 0 2.418890 0.000000 1.311636
5 1 1 0 2.443293 0.000000 -0.076918
6 1 1 0 1.205107 0.000000 -0.725615
7 1 2 0 -0.935130 0.000000 1.947498
8 1 1 0 3.441813 0.000000 4.658818
9 1 1 0 2.033809 0.000000 4.697757
10 1 1 0 1.389257 0.000008 5.941543
11 1 1 0 2.169204 0.000016 7.098631
12 1 1 0 3.574146 0.000015 7.026424
13 1 1 0 4.238173 0.000005 5.796740
14 1 2 0 0.305255 0.000003 6.006532
15 1 2 0 4.155576 0.000028 7.943424
16 1 2 0 1.174949 -0.000005 -1.810943
17 1 2 0 3.379805 0.000013 -0.623905
18 1 2 0 5.320457 -0.000006 5.726251
19 1 2 0 -0.944160 0.000000 -0.536070
20 1 2 0 1.686191 0.000022 8.070957
21 1 3 0 3.533285 0.000000 2.122214
