LAMMPS data file Created

24 atoms

3 atom types

-20 20.0 xlo xhi
-20 20.0 ylo yhi
-20 20.0 zlo zhi

Masses

1 12.011
2 1.008
3 15.999

Atoms

1 1 1 0 0.000000 0.000000 0.000000
2 1 1 0 0.000000 0.000000 1.399724
3 1 1 0 1.213659 0.000000 2.087157
4 1 1 0 2.440319 0.003028 1.409585
5 1 1 0 2.411880 -0.008726 0.010726
6 1 1 0 1.205931 -0.007872 -0.696837
7 1 2 0 -0.937257 0.000555 -0.548338
8 1 2 0 -0.936484 0.000131 1.948768
9 1 2 0 1.218266 0.003438 3.174854
10 1 2 0 1.236295 -0.017084 -1.781507
11 1 1 0 3.758396 0.052222 2.150130
12 1 2 0 3.743924 -0.656648 2.987894
13 1 2 0 3.886703 1.047911 2.601910
14 1 1 0 4.690424 -0.182149 1.431525
15 1 1 0 5.970838 -0.432903 1.942866
16 1 1 0 7.060725 -0.660486 1.102697
17 1 1 0 6.877669 -0.642554 -0.284889
18 1 1 0 5.612743 -0.406375 -0.817896
19 1 1 0 4.532854 -0.181207 0.041228
20 1 2 0 6.109242 -0.442749 3.021693
21 1 2 0 8.042839 -0.850118 1.524529
22 1 2 0 7.717094 -0.817907 -0.951029
23 1 2 0 5.439541 -0.395796 -1.889066
24 1 3 0 3.558992 -0.016569 -0.754755
