LAMMPS data file Created

24 atoms

3 atom types

-20 20.0 xlo xhi
-20 20.0 ylo yhi
-20 20.0 zlo zhi

Masses

1 12.011
2 1.008
3 15.999

Atoms

1 1 1 0 0.000000 0.000000 0.000000
2 1 1 0 0.000000 0.000000 1.399724
3 1 1 0 1.213659 0.000000 2.087157
4 1 1 0 2.440319 0.003028 1.409585
5 1 1 0 2.411880 -0.008726 0.010726
6 1 1 0 1.205931 -0.007872 -0.696837
7 1 2 0 -0.937257 0.000555 -0.548338
8 1 2 0 -0.936484 0.000131 1.948768
9 1 2 0 1.218266 0.003438 3.174854
10 1 2 0 1.236295 -0.017084 -1.781507
11 1 1 0 3.758396 0.052222 2.150130
12 1 2 0 3.743924 -0.656648 2.987894
13 1 2 0 3.886703 1.047911 2.601910
14 1 1 0 6.088467 -0.533705 0.353617
15 1 1 0 7.368880 -0.784459 0.864958
16 1 1 0 8.458767 -1.012042 0.024789
17 1 1 0 8.275712 -0.994110 -1.362797
18 1 1 0 7.010786 -0.757931 -1.895804
19 1 1 0 5.930896 -0.532762 -1.036680
20 1 2 0 7.507284 -0.794304 1.943785
21 1 2 0 9.440882 -1.201674 0.446621
22 1 2 0 9.115137 -1.169463 -2.028937
23 1 2 0 6.837584 -0.747351 -2.966973
24 1 3 0 3.558992 -0.016569 -0.754755
