LAMMPS data file Created

21 atoms

3 atom types

-20 20.0 xlo xhi
-20 20.0 ylo yhi
-20 20.0 zlo zhi

Masses

1 12.011
2 1.008
3 15.999

Atoms

1 1 1 0 0.000000 0.000000 0.000000
2 1 1 0 0.000000 0.000000 1.395457
3 1 1 0 1.229738 0.000000 2.066471
4 1 1 0 2.418883 -0.000091 1.311842
5 1 1 0 2.443431 -0.000210 -0.076591
6 1 1 0 1.205302 -0.000399 -0.725235
7 1 2 0 -0.935061 0.000108 1.947666
8 1 1 0 3.061798 -0.000021 3.418019
9 1 1 0 1.653936 0.000154 3.456132
10 1 1 0 1.008579 0.000379 4.699525
11 1 1 0 1.787901 0.000132 5.857092
12 1 1 0 3.192750 -0.000655 5.785567
13 1 1 0 3.857559 -0.000517 4.556046
14 1 2 0 -0.075470 0.000594 4.763659
15 1 2 0 3.774054 -0.001311 6.702628
16 1 2 0 1.175358 -0.000467 -1.810601
17 1 2 0 3.380017 -0.000553 -0.623445
18 1 2 0 4.939881 -0.000655 4.486618
19 1 2 0 -0.943929 -0.000089 -0.536380
20 1 2 0 1.304441 0.000070 6.829188
21 1 3 0 4.359264 0.000161 2.724258
