LAMMPS data file Created

21 atoms

3 atom types

-20 20.0 xlo xhi
-20 20.0 ylo yhi
-20 20.0 zlo zhi

Masses

1 12.011
2 1.008
3 15.999

Atoms

1 1 1 0 0.000000 0.000000 0.000000
2 1 1 0 0.000000 0.000000 1.395462
3 1 1 0 1.229856 0.000000 2.066445
4 1 1 0 2.418890 0.000000 1.311636
5 1 1 0 2.443293 0.000000 -0.076918
6 1 1 0 1.205107 0.000000 -0.725615
7 1 2 0 -0.935130 0.000000 1.947498
8 1 1 0 3.383360 0.000000 4.467551
9 1 1 0 1.975356 0.000000 4.506489
10 1 1 0 1.330804 0.000008 5.750276
11 1 1 0 2.110751 0.000016 6.907363
12 1 1 0 3.515693 0.000015 6.835157
13 1 1 0 4.179720 0.000005 5.605473
14 1 2 0 0.246802 0.000003 5.815265
15 1 2 0 4.097123 0.000028 7.752157
16 1 2 0 1.174949 -0.000005 -1.810943
17 1 2 0 3.379805 0.000013 -0.623905
18 1 2 0 5.262004 -0.000006 5.534984
19 1 2 0 -0.944160 0.000000 -0.536070
20 1 2 0 1.627738 0.000022 7.879690
21 1 3 0 3.533285 0.000000 2.122214
