LAMMPS data file Created

21 atoms

3 atom types

-20 20.0 xlo xhi
-20 20.0 ylo yhi
-20 20.0 zlo zhi

Masses

1 12.011
2 1.008
3 15.999

Atoms

1 1 1 0 0.000000 0.000000 0.000000
2 1 1 0 0.000000 0.000000 1.395462
3 1 1 0 1.229856 0.000000 2.066445
4 1 1 0 2.418890 0.000000 1.311636
5 1 1 0 2.443293 0.000000 -0.076918
6 1 1 0 1.205107 0.000000 -0.725615
7 1 2 0 -0.935130 0.000000 1.947498
8 1 1 0 2.857286 0.000000 2.746143
9 1 1 0 1.449281 0.000000 2.785081
10 1 1 0 0.804730 0.000008 4.028868
11 1 1 0 1.584676 0.000016 5.185955
12 1 1 0 2.989618 0.000015 5.113749
13 1 1 0 3.653645 0.000005 3.884065
14 1 2 0 -0.279273 0.000003 4.093857
15 1 2 0 3.571048 0.000028 6.030749
16 1 2 0 1.174949 -0.000005 -1.810943
17 1 2 0 3.379805 0.000013 -0.623905
18 1 2 0 4.735930 -0.000006 3.813576
19 1 2 0 -0.944160 0.000000 -0.536070
20 1 2 0 1.101663 0.000022 6.158282
21 1 3 0 3.533285 0.000000 2.122214
