LAMMPS data file Created

24 atoms

3 atom types

-20 20.0 xlo xhi
-20 20.0 ylo yhi
-20 20.0 zlo zhi

Masses

1 12.011
2 1.008
3 15.999

Atoms

1 1 1 0 0.000000 0.000000 0.000000
2 1 1 0 0.000000 0.000000 1.396844
3 1 1 0 1.214394 0.000000 2.104751
4 1 1 0 2.424975 0.001573 1.378361
5 1 1 0 2.410729 0.000541 -0.019413
6 1 1 0 1.198885 -0.000682 -0.722471
7 1 2 0 -0.951489 -0.027572 1.914990
8 1 2 0 3.371026 0.030709 1.908165
9 1 2 0 3.346990 0.010767 -0.569058
10 1 2 0 1.191370 -0.000895 -1.809344
11 1 1 0 1.974756 -0.596391 3.855799
12 1 1 0 1.021305 0.156558 3.136682
13 1 1 0 0.072606 0.907811 3.851858
14 1 1 0 0.080962 0.904874 5.248666
15 1 1 0 1.026408 0.160700 5.963934
16 1 1 0 1.972528 -0.589748 5.253626
17 1 2 0 2.695994 -1.204429 3.320393
18 1 2 0 -0.660134 1.520194 3.339368
19 1 2 0 1.027580 0.163808 7.050827
20 1 2 0 2.704390 -1.178983 5.797665
21 1 3 0 -1.253934 -0.008905 -0.620898
22 1 2 0 -1.189198 -0.019662 -1.594754
23 1 3 0 -0.893672 1.687915 5.877062
24 1 2 0 -0.830751 1.653707 6.850493
