LAMMPS data file Created

21 atoms

3 atom types

-20 20.0 xlo xhi
-20 20.0 ylo yhi
-20 20.0 zlo zhi

Masses

1 12.011
2 1.008
3 15.999

Atoms

1 1 1 0 0.000000 0.000000 0.000000
2 1 1 0 0.000000 0.000000 1.395462
3 1 1 0 1.229856 0.000000 2.066445
4 1 1 0 2.418890 0.000000 1.311636
5 1 1 0 2.443293 0.000000 -0.076918
6 1 1 0 1.205107 0.000000 -0.725615
7 1 2 0 -0.935130 0.000000 1.947498
8 1 1 0 3.149549 0.000000 3.702480
9 1 1 0 1.741545 0.000000 3.741419
10 1 1 0 1.096993 0.000008 4.985206
11 1 1 0 1.876940 0.000016 6.142293
12 1 1 0 3.281882 0.000015 6.070087
13 1 1 0 3.945909 0.000005 4.840403
14 1 2 0 0.012991 0.000003 5.050194
15 1 2 0 3.863312 0.000028 6.987086
16 1 2 0 1.174949 -0.000005 -1.810943
17 1 2 0 3.379805 0.000013 -0.623905
18 1 2 0 5.028193 -0.000006 4.769913
19 1 2 0 -0.944160 0.000000 -0.536070
20 1 2 0 1.393927 0.000022 7.114620
21 1 3 0 3.533285 0.000000 2.122214
