LAMMPS data file Created

24 atoms

3 atom types

-20 20.0 xlo xhi
-20 20.0 ylo yhi
-20 20.0 zlo zhi

Masses

1 12.011
2 1.008
3 15.999

Atoms

1 1 1 0 0.000000 0.000000 0.000000
2 1 1 0 0.000000 0.000000 1.396844
3 1 1 0 1.214394 0.000000 2.104751
4 1 1 0 2.424975 0.001573 1.378361
5 1 1 0 2.410729 0.000541 -0.019413
6 1 1 0 1.198885 -0.000682 -0.722471
7 1 2 0 -0.951489 -0.027572 1.914990
8 1 2 0 3.371026 0.030709 1.908165
9 1 2 0 3.346990 0.010767 -0.569058
10 1 2 0 1.191370 -0.000895 -1.809344
11 1 1 0 2.354938 -0.894586 4.731322
12 1 1 0 1.401487 -0.141638 4.012206
13 1 1 0 0.452787 0.609616 4.727381
14 1 1 0 0.461143 0.606678 6.124189
15 1 1 0 1.406589 -0.137496 6.839458
16 1 1 0 2.352710 -0.887944 6.129150
17 1 2 0 3.076175 -1.502625 4.195917
18 1 2 0 -0.279953 1.221998 4.214892
19 1 2 0 1.407761 -0.134387 7.926351
20 1 2 0 3.084571 -1.477178 6.673188
21 1 3 0 -1.253934 -0.008905 -0.620898
22 1 2 0 -1.189198 -0.019662 -1.594754
23 1 3 0 -0.513491 1.389720 6.752586
24 1 2 0 -0.450569 1.355512 7.726017
