LAMMPS data file Created

21 atoms

3 atom types

-20 20.0 xlo xhi
-20 20.0 ylo yhi
-20 20.0 zlo zhi

Masses

1 12.011
2 1.008
3 15.999

Atoms

1 1 1 0 0.000000 0.000000 0.000000
2 1 1 0 0.000000 0.000000 1.395462
3 1 1 0 1.229856 0.000000 2.066445
4 1 1 0 2.418890 0.000000 1.311636
5 1 1 0 2.443293 0.000000 -0.076918
6 1 1 0 1.205107 0.000000 -0.725615
7 1 2 0 -0.935130 0.000000 1.947498
8 1 1 0 3.178776 0.000000 3.798114
9 1 1 0 1.770771 0.000000 3.837053
10 1 1 0 1.126220 0.000008 5.080840
11 1 1 0 1.906166 0.000016 6.237927
12 1 1 0 3.311108 0.000015 6.165720
13 1 1 0 3.975135 0.000005 4.936036
14 1 2 0 0.042218 0.000003 5.145828
15 1 2 0 3.892538 0.000028 7.082720
16 1 2 0 1.174949 -0.000005 -1.810943
17 1 2 0 3.379805 0.000013 -0.623905
18 1 2 0 5.057420 -0.000006 4.865547
19 1 2 0 -0.944160 0.000000 -0.536070
20 1 2 0 1.423153 0.000022 7.210253
21 1 3 0 3.533285 0.000000 2.122214
