LAMMPS data file Created

21 atoms

3 atom types

-20 20.0 xlo xhi
-20 20.0 ylo yhi
-20 20.0 zlo zhi

Masses

1 12.011
2 1.008
3 15.999

Atoms

1 1 1 0 0.000000 0.000000 0.000000
2 1 1 0 0.000000 0.000000 1.395462
3 1 1 0 1.229856 0.000000 2.066445
4 1 1 0 2.418890 0.000000 1.311636
5 1 1 0 2.443293 0.000000 -0.076918
6 1 1 0 1.205107 0.000000 -0.725615
7 1 2 0 -0.935130 0.000000 1.947498
8 1 1 0 3.412587 0.000000 4.563184
9 1 1 0 2.004582 0.000000 4.602123
10 1 1 0 1.360031 0.000008 5.845910
11 1 1 0 2.139977 0.000016 7.002997
12 1 1 0 3.544919 0.000015 6.930791
13 1 1 0 4.208946 0.000005 5.701106
14 1 2 0 0.276029 0.000003 5.910898
15 1 2 0 4.126349 0.000028 7.847790
16 1 2 0 1.174949 -0.000005 -1.810943
17 1 2 0 3.379805 0.000013 -0.623905
18 1 2 0 5.291231 -0.000006 5.630617
19 1 2 0 -0.944160 0.000000 -0.536070
20 1 2 0 1.656964 0.000022 7.975324
21 1 3 0 3.533285 0.000000 2.122214
