LAMMPS data file Created

5 atoms

3 atom types

-20 20.0 xlo xhi
-20 20.0 ylo yhi
-20 20.0 zlo zhi

Masses

1 12.011
2 1.008
3 15.999

Atoms

1 1 1 0 0.000000 0.000000 0.000000
2 1 2 0 0.000000 0.000000 1.300000
3 1 2 0 1.029889 0.000000 -0.363901
4 1 2 0 -0.514971 -0.891767 -0.364127
5 1 2 0 -0.514826 0.892071 -0.363697
