LAMMPS data file Created

24 atoms

3 atom types

-20 20.0 xlo xhi
-20 20.0 ylo yhi
-20 20.0 zlo zhi

Masses

1 12.011
2 1.008
3 15.999

Atoms

1 1 1 0 0.000000 0.000000 0.000000
2 1 1 0 0.000000 0.000000 1.396844
3 1 1 0 1.214394 0.000000 2.104751
4 1 1 0 2.424975 0.001573 1.378361
5 1 1 0 2.410729 0.000541 -0.019413
6 1 1 0 1.198885 -0.000682 -0.722471
7 1 2 0 -0.951489 -0.027572 1.914990
8 1 2 0 3.371026 0.030709 1.908165
9 1 2 0 3.346990 0.010767 -0.569058
10 1 2 0 1.191370 -0.000895 -1.809344
11 1 1 0 2.088811 -0.685849 4.118456
12 1 1 0 1.135360 0.067099 3.399339
13 1 1 0 0.186661 0.818352 4.114515
14 1 1 0 0.195016 0.815415 5.511323
15 1 1 0 1.140462 0.071241 6.226591
16 1 1 0 2.086583 -0.679207 5.516283
17 1 2 0 2.810048 -1.293888 3.583050
18 1 2 0 -0.546080 1.430735 3.602025
19 1 2 0 1.141635 0.074349 7.313485
20 1 2 0 2.818444 -1.268441 6.060322
21 1 3 0 -1.253934 -0.008905 -0.620898
22 1 2 0 -1.189198 -0.019662 -1.594754
23 1 3 0 -0.779618 1.598457 6.139719
24 1 2 0 -0.716696 1.564249 7.113150
