LAMMPS data file Created

24 atoms

3 atom types

-20 20.0 xlo xhi
-20 20.0 ylo yhi
-20 20.0 zlo zhi

Masses

1 12.011
2 1.008
3 15.999

Atoms

1 1 1 0 0.000000 0.000000 0.000000
2 1 1 0 0.000000 0.000000 1.396844
3 1 1 0 1.214394 0.000000 2.104751
4 1 1 0 2.424975 0.001573 1.378361
5 1 1 0 2.410729 0.000541 -0.019413
6 1 1 0 1.198885 -0.000682 -0.722471
7 1 2 0 -0.951489 -0.027572 1.914990
8 1 2 0 3.371026 0.030709 1.908165
9 1 2 0 3.346990 0.010767 -0.569058
10 1 2 0 1.191370 -0.000895 -1.809344
11 1 1 0 2.126829 -0.715669 4.206008
12 1 1 0 1.173378 0.037280 3.486891
13 1 1 0 0.224679 0.788533 4.202067
14 1 1 0 0.233034 0.785596 5.598875
15 1 1 0 1.178480 0.041422 6.314143
16 1 1 0 2.124601 -0.709027 5.603836
17 1 2 0 2.848066 -1.323707 3.670603
18 1 2 0 -0.508062 1.400915 3.689578
19 1 2 0 1.179653 0.044530 7.401037
20 1 2 0 2.856462 -1.298261 6.147874
21 1 3 0 -1.253934 -0.008905 -0.620898
22 1 2 0 -1.189198 -0.019662 -1.594754
23 1 3 0 -0.741600 1.568637 6.227272
24 1 2 0 -0.678678 1.534429 7.200703
