LAMMPS data file Created

21 atoms

3 atom types

-20 20.0 xlo xhi
-20 20.0 ylo yhi
-20 20.0 zlo zhi

Masses

1 12.011
2 1.008
3 15.999

Atoms

1 1 1 0 0.000000 0.000000 0.000000
2 1 1 0 0.000000 0.000000 1.395462
3 1 1 0 1.229856 0.000000 2.066445
4 1 1 0 2.418890 0.000000 1.311636
5 1 1 0 2.443293 0.000000 -0.076918
6 1 1 0 1.205107 0.000000 -0.725615
7 1 2 0 -0.935130 0.000000 1.947498
8 1 1 0 3.266455 0.000000 4.085015
9 1 1 0 1.858451 0.000000 4.123954
10 1 1 0 1.213899 0.000008 5.367741
11 1 1 0 1.993845 0.000016 6.524828
12 1 1 0 3.398788 0.000015 6.452622
13 1 1 0 4.062814 0.000005 5.222938
14 1 2 0 0.129897 0.000003 5.432730
15 1 2 0 3.980218 0.000028 7.369621
16 1 2 0 1.174949 -0.000005 -1.810943
17 1 2 0 3.379805 0.000013 -0.623905
18 1 2 0 5.145099 -0.000006 5.152448
19 1 2 0 -0.944160 0.000000 -0.536070
20 1 2 0 1.510832 0.000022 7.497155
21 1 3 0 3.533285 0.000000 2.122214
