LAMMPS data file Created

24 atoms

3 atom types

-20 20.0 xlo xhi
-20 20.0 ylo yhi
-20 20.0 zlo zhi

Masses

1 12.011
2 1.008
3 15.999

Atoms

1 1 1 0 0.000000 0.000000 0.000000
2 1 1 0 0.000000 0.000000 1.396844
3 1 1 0 1.214394 0.000000 2.104751
4 1 1 0 2.424975 0.001573 1.378361
5 1 1 0 2.410729 0.000541 -0.019413
6 1 1 0 1.198885 -0.000682 -0.722471
7 1 2 0 -0.951489 -0.027572 1.914990
8 1 2 0 3.371026 0.030709 1.908165
9 1 2 0 3.346990 0.010767 -0.569058
10 1 2 0 1.191370 -0.000895 -1.809344
11 1 1 0 1.936738 -0.566571 3.768246
12 1 1 0 0.983287 0.186377 3.049129
13 1 1 0 0.034588 0.937631 3.764305
14 1 1 0 0.042944 0.934693 5.161113
15 1 1 0 0.988390 0.190519 5.876382
16 1 1 0 1.934510 -0.559929 5.166074
17 1 2 0 2.657975 -1.174610 3.232841
18 1 2 0 -0.698152 1.550013 3.251816
19 1 2 0 0.989562 0.193627 6.963275
20 1 2 0 2.666372 -1.149163 5.710112
21 1 3 0 -1.253934 -0.008905 -0.620898
22 1 2 0 -1.189198 -0.019662 -1.594754
23 1 3 0 -0.931690 1.717735 5.789510
24 1 2 0 -0.868769 1.683527 6.762941
