LAMMPS data file Created

24 atoms

3 atom types

-20 20.0 xlo xhi
-20 20.0 ylo yhi
-20 20.0 zlo zhi

Masses

1 12.011
2 1.008
3 15.999

Atoms

1 1 1 0 0.000000 0.000000 0.000000
2 1 1 0 0.000000 0.000000 1.396844
3 1 1 0 1.214394 0.000000 2.104751
4 1 1 0 2.424975 0.001573 1.378361
5 1 1 0 2.410729 0.000541 -0.019413
6 1 1 0 1.198885 -0.000682 -0.722471
7 1 2 0 -0.951489 -0.027572 1.914990
8 1 2 0 3.371026 0.030709 1.908165
9 1 2 0 3.346990 0.010767 -0.569058
10 1 2 0 1.191370 -0.000895 -1.809344
11 1 1 0 1.708629 -0.387654 3.242932
12 1 1 0 0.755178 0.365295 2.523815
13 1 1 0 -0.193521 1.116548 3.238991
14 1 1 0 -0.185165 1.113610 4.635799
15 1 1 0 0.760281 0.369436 5.351067
16 1 1 0 1.706401 -0.381012 4.640760
17 1 2 0 2.429867 -0.995693 2.707527
18 1 2 0 -0.926261 1.728930 2.726502
19 1 2 0 0.761453 0.372545 6.437961
20 1 2 0 2.438263 -0.970246 5.184798
21 1 3 0 -1.253934 -0.008905 -0.620898
22 1 2 0 -1.189198 -0.019662 -1.594754
23 1 3 0 -1.159799 1.896652 5.264196
24 1 2 0 -1.096878 1.862444 6.237627
