LAMMPS data file Created

24 atoms

3 atom types

-20 20.0 xlo xhi
-20 20.0 ylo yhi
-20 20.0 zlo zhi

Masses

1 12.011
2 1.008
3 15.999

Atoms

1 1 1 0 0.000000 0.000000 0.000000
2 1 1 0 0.000000 0.000000 1.396844
3 1 1 0 1.214394 0.000000 2.104751
4 1 1 0 2.424975 0.001573 1.378361
5 1 1 0 2.410729 0.000541 -0.019413
6 1 1 0 1.198885 -0.000682 -0.722471
7 1 2 0 -0.951489 -0.027572 1.914990
8 1 2 0 3.371026 0.030709 1.908165
9 1 2 0 3.346990 0.010767 -0.569058
10 1 2 0 1.191370 -0.000895 -1.809344
11 1 1 0 1.860702 -0.506932 3.593141
12 1 1 0 0.907251 0.246016 2.874025
13 1 1 0 -0.041448 0.997270 3.589200
14 1 1 0 -0.033093 0.994332 4.986009
15 1 1 0 0.912353 0.250158 5.701277
16 1 1 0 1.858474 -0.500290 4.990969
17 1 2 0 2.581939 -1.114971 3.057736
18 1 2 0 -0.774189 1.609652 3.076711
19 1 2 0 0.913526 0.253266 6.788170
20 1 2 0 2.590336 -1.089524 5.535008
21 1 3 0 -1.253934 -0.008905 -0.620898
22 1 2 0 -1.189198 -0.019662 -1.594754
23 1 3 0 -1.007727 1.777374 5.614405
24 1 2 0 -0.944805 1.743166 6.587836
