LAMMPS data file Created

24 atoms

3 atom types

-20 20.0 xlo xhi
-20 20.0 ylo yhi
-20 20.0 zlo zhi

Masses

1 12.011
2 1.008
3 15.999

Atoms

1 1 1 0 0.000000 0.000000 0.000000
2 1 1 0 0.000000 0.000000 1.396844
3 1 1 0 1.214394 0.000000 2.104751
4 1 1 0 2.424975 0.001573 1.378361
5 1 1 0 2.410729 0.000541 -0.019413
6 1 1 0 1.198885 -0.000682 -0.722471
7 1 2 0 -0.951489 -0.027572 1.914990
8 1 2 0 3.371026 0.030709 1.908165
9 1 2 0 3.346990 0.010767 -0.569058
10 1 2 0 1.191370 -0.000895 -1.809344
11 1 1 0 2.202865 -0.775308 4.381113
12 1 1 0 1.249414 -0.022359 3.661996
13 1 1 0 0.300715 0.728894 4.377172
14 1 1 0 0.309070 0.725957 5.773980
15 1 1 0 1.254517 -0.018218 6.489248
16 1 1 0 2.200637 -0.768666 5.778941
17 1 2 0 2.924102 -1.383347 3.845707
18 1 2 0 -0.432026 1.341276 3.864682
19 1 2 0 1.255689 -0.015109 7.576142
20 1 2 0 2.932499 -1.357900 6.322979
21 1 3 0 -1.253934 -0.008905 -0.620898
22 1 2 0 -1.189198 -0.019662 -1.594754
23 1 3 0 -0.665563 1.508998 6.402377
24 1 2 0 -0.602642 1.474790 7.375808
