LAMMPS data file Created

24 atoms

3 atom types

-20 20.0 xlo xhi
-20 20.0 ylo yhi
-20 20.0 zlo zhi

Masses

1 12.011
2 1.008
3 15.999

Atoms

1 1 1 0 0.000000 0.000000 0.000000
2 1 1 0 0.000000 0.000000 1.396844
3 1 1 0 1.214394 0.000000 2.104751
4 1 1 0 2.424975 0.001573 1.378361
5 1 1 0 2.410729 0.000541 -0.019413
6 1 1 0 1.198885 -0.000682 -0.722471
7 1 2 0 -0.951489 -0.027572 1.914990
8 1 2 0 3.371026 0.030709 1.908165
9 1 2 0 3.346990 0.010767 -0.569058
10 1 2 0 1.191370 -0.000895 -1.809344
11 1 1 0 2.240883 -0.805127 4.468665
12 1 1 0 1.287432 -0.052179 3.749548
13 1 1 0 0.338733 0.699074 4.464724
14 1 1 0 0.347089 0.696137 5.861532
15 1 1 0 1.292535 -0.048037 6.576801
16 1 1 0 2.238655 -0.798485 5.866493
17 1 2 0 2.962121 -1.413166 3.933260
18 1 2 0 -0.394007 1.311457 3.952235
19 1 2 0 1.293707 -0.044929 7.663694
20 1 2 0 2.970517 -1.387720 6.410531
21 1 3 0 -1.253934 -0.008905 -0.620898
22 1 2 0 -1.189198 -0.019662 -1.594754
23 1 3 0 -0.627545 1.479178 6.489929
24 1 2 0 -0.564624 1.444970 7.463360
