LAMMPS data file Created

26 atoms

3 atom types

-20 20.0 xlo xhi
-20 20.0 ylo yhi
-20 20.0 zlo zhi

Masses

1 12.011
2 1.008
3 15.999

Atoms

1 1 1 0 -4.349400 -0.024999 -0.377670
2 1 1 0 -3.950638 0.418442 0.886364
3 1 1 0 -2.595040 0.578889 1.184183
4 1 1 0 -1.642679 0.294471 0.205068
5 1 1 0 -2.025134 -0.135414 -1.068690
6 1 1 0 -3.382865 -0.298999 -1.350795
7 1 2 0 -5.403476 -0.149654 -0.605616
8 1 2 0 -4.694220 0.640241 1.646227
9 1 2 0 -2.264557 0.926835 2.157278
10 1 2 0 -1.271442 -0.328019 -1.825022
11 1 2 0 -3.684882 -0.630663 -2.339984
12 1 1 0 0.659553 -0.371188 0.266326
13 1 1 0 0.407661 -1.746808 0.355398
14 1 1 0 1.446179 -2.660785 0.194153
15 1 1 0 2.751314 -2.217854 -0.043618
16 1 1 0 3.003461 -0.851913 -0.121684
17 1 1 0 1.970128 0.093608 0.015386
18 1 2 0 -0.599792 -2.088964 0.563028
19 1 2 0 1.234446 -3.723609 0.268246
20 1 2 0 3.561787 -2.929330 -0.163477
21 1 2 0 4.008932 -0.492661 -0.305155
22 1 3 0 -0.984058 1.181524 0.687782
23 1 1 0 2.267263 1.542770 -0.147586
24 1 3 0 3.603049 1.807041 -0.032067
25 1 2 0 3.700796 2.760380 -0.191345
26 1 3 0 1.470820 2.428208 -0.382860
