LAMMPS data file Created

24 atoms

3 atom types

-20 20.0 xlo xhi
-20 20.0 ylo yhi
-20 20.0 zlo zhi

Masses

1 12.011
2 1.008
3 15.999

Atoms

1 1 1 0 0.000000 0.000000 0.000000
2 1 1 0 0.000000 0.000000 1.396844
3 1 1 0 1.214394 0.000000 2.104751
4 1 1 0 2.424975 0.001573 1.378361
5 1 1 0 2.410729 0.000541 -0.019413
6 1 1 0 1.198885 -0.000682 -0.722471
7 1 2 0 -0.951489 -0.027572 1.914990
8 1 2 0 3.371026 0.030709 1.908165
9 1 2 0 3.346990 0.010767 -0.569058
10 1 2 0 1.191370 -0.000895 -1.809344
11 1 1 0 1.784666 -0.447293 3.418037
12 1 1 0 0.831215 0.305655 2.698920
13 1 1 0 -0.117485 1.056909 3.414096
14 1 1 0 -0.109129 1.053971 4.810904
15 1 1 0 0.836317 0.309797 5.526172
16 1 1 0 1.782438 -0.440651 4.815865
17 1 2 0 2.505903 -1.055332 2.882631
18 1 2 0 -0.850225 1.669291 2.901606
19 1 2 0 0.837489 0.312906 6.613066
20 1 2 0 2.514299 -1.029885 5.359903
21 1 3 0 -1.253934 -0.008905 -0.620898
22 1 2 0 -1.189198 -0.019662 -1.594754
23 1 3 0 -1.083763 1.837013 5.439301
24 1 2 0 -1.020841 1.802805 6.412732
