LAMMPS data file Created

24 atoms

3 atom types

-20 20.0 xlo xhi
-20 20.0 ylo yhi
-20 20.0 zlo zhi

Masses

1 12.011
2 1.008
3 15.999

Atoms

1 1 1 0 0.000000 0.000000 0.000000
2 1 1 0 0.000000 0.000000 1.396844
3 1 1 0 1.214394 0.000000 2.104751
4 1 1 0 2.424975 0.001573 1.378361
5 1 1 0 2.410729 0.000541 -0.019413
6 1 1 0 1.198885 -0.000682 -0.722471
7 1 2 0 -0.951489 -0.027572 1.914990
8 1 2 0 3.371026 0.030709 1.908165
9 1 2 0 3.346990 0.010767 -0.569058
10 1 2 0 1.191370 -0.000895 -1.809344
11 1 1 0 1.746647 -0.417473 3.330484
12 1 1 0 0.793196 0.335475 2.611368
13 1 1 0 -0.155503 1.086728 3.326543
14 1 1 0 -0.147147 1.083791 4.723352
15 1 1 0 0.798299 0.339617 5.438620
16 1 1 0 1.744419 -0.410831 4.728312
17 1 2 0 2.467885 -1.025512 2.795079
18 1 2 0 -0.888243 1.699111 2.814054
19 1 2 0 0.799471 0.342725 6.525513
20 1 2 0 2.476281 -1.000066 5.272351
21 1 3 0 -1.253934 -0.008905 -0.620898
22 1 2 0 -1.189198 -0.019662 -1.594754
23 1 3 0 -1.121781 1.866832 5.351748
24 1 2 0 -1.058859 1.832624 6.325179
