LAMMPS data file Created

24 atoms

3 atom types

-20 20.0 xlo xhi
-20 20.0 ylo yhi
-20 20.0 zlo zhi

Masses

1 12.011
2 1.008
3 15.999

Atoms

1 1 1 0 0.000000 0.000000 0.000000
2 1 1 0 0.000000 0.000000 1.399724
3 1 1 0 1.213659 0.000000 2.087157
4 1 1 0 2.440319 0.003028 1.409585
5 1 1 0 2.411880 -0.008726 0.010726
6 1 1 0 1.205931 -0.007872 -0.696837
7 1 2 0 -0.937257 0.000555 -0.548338
8 1 2 0 -0.936484 0.000131 1.948768
9 1 2 0 1.218266 0.003438 3.174854
10 1 2 0 1.236295 -0.017084 -1.781507
11 1 1 0 3.758396 0.052222 2.150130
12 1 2 0 3.743924 -0.656648 2.987894
13 1 2 0 3.886703 1.047911 2.601910
14 1 1 0 5.777791 -0.455581 0.593152
15 1 1 0 7.058204 -0.706335 1.104493
16 1 1 0 8.148091 -0.933918 0.264324
17 1 1 0 7.965036 -0.915986 -1.123262
18 1 1 0 6.700110 -0.679807 -1.656269
19 1 1 0 5.620220 -0.454639 -0.797145
20 1 2 0 7.196608 -0.716181 2.183320
21 1 2 0 9.130206 -1.123551 0.686156
22 1 2 0 8.804461 -1.091339 -1.789402
23 1 2 0 6.526908 -0.669228 -2.727438
24 1 3 0 3.558992 -0.016569 -0.754755
