LAMMPS data file Created

24 atoms

3 atom types

-20 20.0 xlo xhi
-20 20.0 ylo yhi
-20 20.0 zlo zhi

Masses

1 12.011
2 1.008
3 15.999

Atoms

1 1 1 0 0.000000 0.000000 0.000000
2 1 1 0 0.000000 0.000000 1.399724
3 1 1 0 1.213659 0.000000 2.087157
4 1 1 0 2.440319 0.003028 1.409585
5 1 1 0 2.411880 -0.008726 0.010726
6 1 1 0 1.205931 -0.007872 -0.696837
7 1 2 0 -0.937257 0.000555 -0.548338
8 1 2 0 -0.936484 0.000131 1.948768
9 1 2 0 1.218266 0.003438 3.174854
10 1 2 0 1.236295 -0.017084 -1.781507
11 1 1 0 3.758396 0.052222 2.150130
12 1 2 0 3.743924 -0.656648 2.987894
13 1 2 0 3.886703 1.047911 2.601910
14 1 1 0 4.933268 -0.243215 1.244290
15 1 1 0 6.213682 -0.493969 1.755631
16 1 1 0 7.303568 -0.721553 0.915462
17 1 1 0 7.120513 -0.703620 -0.472125
18 1 1 0 5.855587 -0.467441 -1.005132
19 1 1 0 4.775698 -0.242273 -0.146007
20 1 2 0 6.352085 -0.503815 2.834457
21 1 2 0 8.285683 -0.911185 1.337293
22 1 2 0 7.959938 -0.878973 -1.138265
23 1 2 0 5.682385 -0.456862 -2.076301
24 1 3 0 4.491353 -0.022943 -1.376930
