LAMMPS data file Created

27 atoms

3 atom types

-20 20.0 xlo xhi
-20 20.0 ylo yhi
-20 20.0 zlo zhi

Masses

1 12.011
2 1.008
3 15.999

Atoms

1 1 1 0 0.000000 0.000000 0.000000
2 1 1 0 0.000000 0.000000 1.399098
3 1 1 0 1.199224 0.000000 2.133390
4 1 1 0 2.410940 -0.001806 1.420228
5 1 1 0 2.427655 -0.000528 0.021161
6 1 1 0 1.217582 0.000540 -0.684590
7 1 2 0 -0.949889 0.000936 1.927389
8 1 2 0 3.352681 -0.012033 1.961707
9 1 2 0 3.375563 -0.001559 -0.511690
10 1 2 0 -0.924555 -0.001299 -0.566025
11 1 1 0 1.731215 -2.432489 4.043302
12 1 1 0 1.995036 -1.076421 4.323831
13 1 1 0 3.002294 -0.756175 5.243466
14 1 1 0 3.731504 -1.771661 5.873392
15 1 1 0 3.471332 -3.117932 5.600594
16 1 1 0 2.463032 -3.438959 4.679380
17 1 2 0 3.232871 0.276124 5.485521
18 1 2 0 2.253435 -4.481720 4.460640
19 1 2 0 0.960687 -2.693091 3.324235
20 1 1 0 0.400748 1.098789 3.009788
21 1 2 0 0.776088 2.068968 3.363208
22 1 2 0 -0.642231 1.035063 3.349380
23 1 3 0 1.157976 -0.000422 -2.083624
24 1 3 0 4.720198 -1.359516 6.775016
25 1 2 0 5.187865 -2.111577 7.185477
26 1 2 0 4.039758 -3.903539 6.091838
27 1 2 0 2.043185 0.000126 -2.495017
