LAMMPS data file Created

24 atoms

3 atom types

-20 20.0 xlo xhi
-20 20.0 ylo yhi
-20 20.0 zlo zhi

Masses

1 12.011
2 1.008
3 15.999

Atoms

1 1 1 0 0.000000 0.000000 0.000000
2 1 1 0 0.000000 0.000000 1.396844
3 1 1 0 1.214394 0.000000 2.104751
4 1 1 0 2.424975 0.001573 1.378361
5 1 1 0 2.410729 0.000541 -0.019413
6 1 1 0 1.198885 -0.000682 -0.722471
7 1 2 0 -0.951489 -0.027572 1.914990
8 1 2 0 3.371026 0.030709 1.908165
9 1 2 0 3.346990 0.010767 -0.569058
10 1 2 0 1.191370 -0.000895 -1.809344
11 1 1 0 1.898720 -0.536752 3.680694
12 1 1 0 0.945269 0.216197 2.961577
13 1 1 0 -0.003430 0.967450 3.676753
14 1 1 0 0.004925 0.964513 5.073561
15 1 1 0 0.950372 0.220339 5.788829
16 1 1 0 1.896492 -0.530109 5.078522
17 1 2 0 2.619957 -1.144790 3.145288
18 1 2 0 -0.736171 1.579833 3.164263
19 1 2 0 0.951544 0.223447 6.875723
20 1 2 0 2.628354 -1.119344 5.622560
21 1 3 0 -1.253934 -0.008905 -0.620898
22 1 2 0 -1.189198 -0.019662 -1.594754
23 1 3 0 -0.969709 1.747554 5.701958
24 1 2 0 -0.906787 1.713346 6.675389
