LAMMPS data file Created

27 atoms

3 atom types

-20 20.0 xlo xhi
-20 20.0 ylo yhi
-20 20.0 zlo zhi

Masses

1 12.011
2 1.008
3 15.999

Atoms

1 1 1 0 0.000000 0.000000 0.000000
2 1 1 0 0.000000 0.000000 1.399144
3 1 1 0 1.199051 0.000000 2.134059
4 1 1 0 2.410612 -0.002652 1.420523
5 1 1 0 2.427544 -0.001069 0.021345
6 1 1 0 1.217582 0.000225 -0.684622
7 1 2 0 -0.949909 0.001419 1.927458
8 1 2 0 3.352258 -0.013834 1.962127
9 1 2 0 3.375581 -0.002508 -0.511351
10 1 2 0 -0.924565 -0.001432 -0.566069
11 1 1 0 1.812568 -2.414870 4.018726
12 1 1 0 2.007049 -1.058360 4.333488
13 1 1 0 2.965789 -0.738356 5.311361
14 1 1 0 3.707942 -1.731262 5.960170
15 1 1 0 3.493247 -3.071658 5.630845
16 1 1 0 2.545636 -3.419776 4.659635
17 1 2 0 3.135256 0.303152 5.572103
18 1 2 0 4.447868 -1.483987 6.712913
19 1 2 0 2.379498 -4.463076 4.401831
20 1 2 0 1.086374 -2.690700 3.259310
21 1 1 0 1.188371 0.022403 3.233779
22 1 2 0 1.553224 0.998692 3.583163
23 1 2 0 0.144356 -0.045385 3.571081
24 1 3 0 1.158049 -0.001234 -2.083693
25 1 2 0 2.043309 0.001391 -2.495011
26 1 3 0 4.264791 -4.022632 6.310050
27 1 2 0 4.060098 -4.936077 6.033291
