LAMMPS data file Created

21 atoms

3 atom types

-20 20.0 xlo xhi
-20 20.0 ylo yhi
-20 20.0 zlo zhi

Masses

1 12.011
2 1.008
3 15.999

Atoms

1 1 1 0 0.000000 0.000000 0.000000
2 1 1 0 0.000000 0.000000 1.395462
3 1 1 0 1.229856 0.000000 2.066445
4 1 1 0 2.418890 0.000000 1.311636
5 1 1 0 2.443293 0.000000 -0.076918
6 1 1 0 1.205107 0.000000 -0.725615
7 1 2 0 -0.935130 0.000000 1.947498
8 1 1 0 2.915738 0.000000 2.937410
9 1 1 0 1.507734 0.000000 2.976349
10 1 1 0 0.863182 0.000008 4.220136
11 1 1 0 1.643129 0.000016 5.377223
12 1 1 0 3.048071 0.000015 5.305016
13 1 1 0 3.712098 0.000005 4.075332
14 1 2 0 -0.220820 0.000003 4.285124
15 1 2 0 3.629501 0.000028 6.222016
16 1 2 0 1.174949 -0.000005 -1.810943
17 1 2 0 3.379805 0.000013 -0.623905
18 1 2 0 4.794382 -0.000006 4.004843
19 1 2 0 -0.944160 0.000000 -0.536070
20 1 2 0 1.160116 0.000022 6.349549
21 1 3 0 3.533285 0.000000 2.122214
