LAMMPS data file Created

24 atoms

3 atom types

-20 20.0 xlo xhi
-20 20.0 ylo yhi
-20 20.0 zlo zhi

Masses

1 12.011
2 1.008
3 15.999

Atoms

1 1 1 0 0.000000 0.000000 0.000000
2 1 1 0 0.000000 0.000000 1.399724
3 1 1 0 1.213659 0.000000 2.087157
4 1 1 0 2.440319 0.003028 1.409585
5 1 1 0 2.411880 -0.008726 0.010726
6 1 1 0 1.205931 -0.007872 -0.696837
7 1 2 0 -0.937257 0.000555 -0.548338
8 1 2 0 -0.936484 0.000131 1.948768
9 1 2 0 1.218266 0.003438 3.174854
10 1 2 0 1.236295 -0.017084 -1.781507
11 1 1 0 3.758396 0.052222 2.150130
12 1 2 0 3.743924 -0.656648 2.987894
13 1 2 0 3.886703 1.047911 2.601910
14 1 1 0 5.389446 -0.357927 0.892571
15 1 1 0 6.669859 -0.608681 1.403912
16 1 1 0 7.759746 -0.836264 0.563743
17 1 1 0 7.576690 -0.818332 -0.823843
18 1 1 0 6.311765 -0.582153 -1.356850
19 1 1 0 5.231875 -0.356984 -0.497726
20 1 2 0 6.808263 -0.618526 2.482739
21 1 2 0 8.741861 -1.025896 0.985575
22 1 2 0 8.416116 -0.993685 -1.489983
23 1 2 0 6.138562 -0.571573 -2.428020
24 1 3 0 3.558992 -0.016569 -0.754755
