LAMMPS (29 Sep 2021 - Update 3)
OMP_NUM_THREADS environment is not set. Defaulting to 1 thread. (src/comm.cpp:98)
  using 1 OpenMP thread(s) per MPI task
package omp 0
using multi-threaded neighbor list subroutines
package omp 1
using multi-threaded neighbor list subroutines
# LG30---original density----0.5------100KPS----1000K----500ps--f4
variable a loop 1 399
units real
atom_style full
neighbor 2.0 bin
neigh_modify every 1 delay 0 check no
read_data data_$a
read_data data_1
Reading data file ...
  orthogonal box = (-20.000000 -20.000000 -20.000000) to (20.000000 20.000000 20.000000)
  1 by 1 by 1 MPI processor grid
  reading atoms ...
  24 atoms
Finding 1-2 1-3 1-4 neighbors ...
  special bond factors lj:    0        0        0       
  special bond factors coul:  0        0        0       
     0 = max # of 1-2 neighbors
     0 = max # of 1-3 neighbors
     0 = max # of 1-4 neighbors
     1 = max # of special neighbors
  special bonds CPU = 0.000 seconds
  read_data CPU = 0.002 seconds
pair_style reax/c NULL
pair_coeff * * ffield.reax.cho C H O
WARNING: Changed valency_val to valency_boc for C (src/REAXFF/reaxff_ffield.cpp:296)
WARNING: Changed valency_val to valency_boc for H (src/REAXFF/reaxff_ffield.cpp:296)
WARNING: Changed valency_val to valency_boc for O (src/REAXFF/reaxff_ffield.cpp:296)
timestep 0.25
velocity all create 300.0 4928459 rot yes dist gaussian
fix 3 all qeq/reax 1 0.0 10 1e-6 reax/c
variable mye equal etotal
run 1

CITE-CITE-CITE-CITE-CITE-CITE-CITE-CITE-CITE-CITE-CITE-CITE-CITE

Your simulation uses code contributions which should be cited:

- pair reaxff command:

@Article{Aktulga12,
 author = {H. M. Aktulga, J. C. Fogarty, S. A. Pandit, A. Y. Grama},
 title = {Parallel reactive molecular dynamics: Numerical methods and algorithmic techniques},
 journal = {Parallel Computing},
 year =    2012,
 volume =  38,
 pages =   {245--259}
}

- pair reaxff/omp and fix qeq/reaxff/omp command:

@Article{Aktulga17,
 author =  {H. M. Aktulga, C. Knight, P. Coffman, K. A. OHearn, T. R. Shan, W. Jiang},
 title =   {Optimizing the performance of reactive molecular dynamics simulations for multi-core architectures},
 journal = {International Journal of High Performance Computing Applications},
 year =    to appear
}

CITE-CITE-CITE-CITE-CITE-CITE-CITE-CITE-CITE-CITE-CITE-CITE-CITE

Last active /omp style is pair_style reax/c/omp
Neighbor list info ...
  update every 1 steps, delay 0 steps, check no
  max neighbors/atom: 2000, page size: 100000
  master list distance cutoff = 12.0001
  ghost atom cutoff = 12.0001
  binsize = 6.00005, bins = 7 7 7
  2 neighbor lists, perpetual/occasional/extra = 2 0 0
  (1) pair reax/c/omp, perpetual
      attributes: half, newton off, ghost, omp
      pair build: half/bin/newtoff/ghost/omp
      stencil: full/ghost/bin/3d
      bin: standard
  (2) fix qeq/reax/omp, perpetual, copy from (1)
      attributes: half, newton off, ghost
      pair build: copy
      stencil: none
      bin: none
Per MPI rank memory allocation (min/avg/max) = 9.011 | 9.011 | 9.011 Mbytes
Step Temp E_pair E_mol TotEng Press 
       0          300   -1987.9725            0   -1967.4049    1764.9393 
       1          300   -1987.9725            0   -1967.4049    1764.9394 
Loop time of 0.0015895 on 1 procs for 1 steps with 24 atoms

Performance: 13.589 ns/day, 1.766 hours/ns, 629.129 timesteps/s
0.0% CPU use with 1 MPI tasks x 1 OpenMP threads

MPI task timing breakdown:
Section |  min time  |  avg time  |  max time  |%varavg| %total
---------------------------------------------------------------
Pair    | 0.000724   | 0.000724   | 0.000724   |   0.0 | 45.55
Bond    | 1e-07      | 1e-07      | 1e-07      |   0.0 |  0.01
Neigh   | 1.81e-05   | 1.81e-05   | 1.81e-05   |   0.0 |  1.14
Comm    | 2e-06      | 2e-06      | 2e-06      |   0.0 |  0.13
Output  | 9.6e-06    | 9.6e-06    | 9.6e-06    |   0.0 |  0.60
Modify  | 0.0008176  | 0.0008176  | 0.0008176  |   0.0 | 51.44
Other   |            | 1.81e-05   |            |       |  1.14

Nlocal:        24.0000 ave          24 max          24 min
Histogram: 1 0 0 0 0 0 0 0 0 0
Nghost:         0.00000 ave           0 max           0 min
Histogram: 1 0 0 0 0 0 0 0 0 0
Neighs:        276.000 ave         276 max         276 min
Histogram: 1 0 0 0 0 0 0 0 0 0

Total # of neighbors = 276
Ave neighs/atom = 11.500000
Ave special neighs/atom = 0.0000000
Neighbor list builds = 1
Dangerous builds not checked
print ${mye} append info1.data screen no
print -1967.40487365522 append info1.data screen no
clear
OMP_NUM_THREADS environment is not set. Defaulting to 1 thread. (src/comm.cpp:98)
  using 1 OpenMP thread(s) per MPI task
package omp 0
using multi-threaded neighbor list subroutines
package omp 1
using multi-threaded neighbor list subroutines
next a
jump input.in
# LG30---original density----0.5------100KPS----1000K----500ps--f4
variable a loop 1 399
units real
atom_style full
neighbor 2.0 bin
neigh_modify every 1 delay 0 check no
read_data data_$a
read_data data_2
Reading data file ...
  orthogonal box = (-20.000000 -20.000000 -20.000000) to (20.000000 20.000000 20.000000)
  1 by 1 by 1 MPI processor grid
  reading atoms ...
  24 atoms
Finding 1-2 1-3 1-4 neighbors ...
  special bond factors lj:    0        0        0       
  special bond factors coul:  0        0        0       
     0 = max # of 1-2 neighbors
     0 = max # of 1-3 neighbors
     0 = max # of 1-4 neighbors
     1 = max # of special neighbors
  special bonds CPU = 0.000 seconds
  read_data CPU = 0.002 seconds
pair_style reax/c NULL
pair_coeff * * ffield.reax.cho C H O
WARNING: Changed valency_val to valency_boc for C (src/REAXFF/reaxff_ffield.cpp:296)
WARNING: Changed valency_val to valency_boc for H (src/REAXFF/reaxff_ffield.cpp:296)
WARNING: Changed valency_val to valency_boc for O (src/REAXFF/reaxff_ffield.cpp:296)
timestep 0.25
velocity all create 300.0 4928459 rot yes dist gaussian
fix 3 all qeq/reax 1 0.0 10 1e-6 reax/c
variable mye equal etotal
run 1
Last active /omp style is pair_style reax/c/omp
Neighbor list info ...
  update every 1 steps, delay 0 steps, check no
  max neighbors/atom: 2000, page size: 100000
  master list distance cutoff = 12.0001
  ghost atom cutoff = 12.0001
  binsize = 6.00005, bins = 7 7 7
  2 neighbor lists, perpetual/occasional/extra = 2 0 0
  (1) pair reax/c/omp, perpetual
      attributes: half, newton off, ghost, omp
      pair build: half/bin/newtoff/ghost/omp
      stencil: full/ghost/bin/3d
      bin: standard
  (2) fix qeq/reax/omp, perpetual, copy from (1)
      attributes: half, newton off, ghost
      pair build: copy
      stencil: none
      bin: none
Per MPI rank memory allocation (min/avg/max) = 9.011 | 9.011 | 9.011 Mbytes
Step Temp E_pair E_mol TotEng Press 
       0          300   -2032.8388            0   -2012.2712    2361.6529 
       1          300   -2032.8388            0   -2012.2712    2361.6529 
Loop time of 0.0015176 on 1 procs for 1 steps with 24 atoms

Performance: 14.233 ns/day, 1.686 hours/ns, 658.935 timesteps/s
0.0% CPU use with 1 MPI tasks x 1 OpenMP threads

MPI task timing breakdown:
Section |  min time  |  avg time  |  max time  |%varavg| %total
---------------------------------------------------------------
Pair    | 0.0007236  | 0.0007236  | 0.0007236  |   0.0 | 47.68
Bond    | 1e-07      | 1e-07      | 1e-07      |   0.0 |  0.01
Neigh   | 1.66e-05   | 1.66e-05   | 1.66e-05   |   0.0 |  1.09
Comm    | 1.9e-06    | 1.9e-06    | 1.9e-06    |   0.0 |  0.13
Output  | 8.8e-06    | 8.8e-06    | 8.8e-06    |   0.0 |  0.58
Modify  | 0.0007504  | 0.0007504  | 0.0007504  |   0.0 | 49.45
Other   |            | 1.62e-05   |            |       |  1.07

Nlocal:        24.0000 ave          24 max          24 min
Histogram: 1 0 0 0 0 0 0 0 0 0
Nghost:         0.00000 ave           0 max           0 min
Histogram: 1 0 0 0 0 0 0 0 0 0
Neighs:        276.000 ave         276 max         276 min
Histogram: 1 0 0 0 0 0 0 0 0 0

Total # of neighbors = 276
Ave neighs/atom = 11.500000
Ave special neighs/atom = 0.0000000
Neighbor list builds = 1
Dangerous builds not checked
print ${mye} append info1.data screen no
print -2012.27121359349 append info1.data screen no
clear
OMP_NUM_THREADS environment is not set. Defaulting to 1 thread. (src/comm.cpp:98)
  using 1 OpenMP thread(s) per MPI task
package omp 0
using multi-threaded neighbor list subroutines
package omp 1
using multi-threaded neighbor list subroutines
next a
jump input.in
# LG30---original density----0.5------100KPS----1000K----500ps--f4
variable a loop 1 399
units real
atom_style full
neighbor 2.0 bin
neigh_modify every 1 delay 0 check no
read_data data_$a
read_data data_3
Reading data file ...
  orthogonal box = (-20.000000 -20.000000 -20.000000) to (20.000000 20.000000 20.000000)
  1 by 1 by 1 MPI processor grid
  reading atoms ...
  24 atoms
Finding 1-2 1-3 1-4 neighbors ...
  special bond factors lj:    0        0        0       
  special bond factors coul:  0        0        0       
     0 = max # of 1-2 neighbors
     0 = max # of 1-3 neighbors
     0 = max # of 1-4 neighbors
     1 = max # of special neighbors
  special bonds CPU = 0.000 seconds
  read_data CPU = 0.002 seconds
pair_style reax/c NULL
pair_coeff * * ffield.reax.cho C H O
WARNING: Changed valency_val to valency_boc for C (src/REAXFF/reaxff_ffield.cpp:296)
WARNING: Changed valency_val to valency_boc for H (src/REAXFF/reaxff_ffield.cpp:296)
WARNING: Changed valency_val to valency_boc for O (src/REAXFF/reaxff_ffield.cpp:296)
timestep 0.25
velocity all create 300.0 4928459 rot yes dist gaussian
fix 3 all qeq/reax 1 0.0 10 1e-6 reax/c
variable mye equal etotal
run 1
Last active /omp style is pair_style reax/c/omp
Neighbor list info ...
  update every 1 steps, delay 0 steps, check no
  max neighbors/atom: 2000, page size: 100000
  master list distance cutoff = 12.0001
  ghost atom cutoff = 12.0001
  binsize = 6.00005, bins = 7 7 7
  2 neighbor lists, perpetual/occasional/extra = 2 0 0
  (1) pair reax/c/omp, perpetual
      attributes: half, newton off, ghost, omp
      pair build: half/bin/newtoff/ghost/omp
      stencil: full/ghost/bin/3d
      bin: standard
  (2) fix qeq/reax/omp, perpetual, copy from (1)
      attributes: half, newton off, ghost
      pair build: copy
      stencil: none
      bin: none
Per MPI rank memory allocation (min/avg/max) = 9.011 | 9.011 | 9.011 Mbytes
Step Temp E_pair E_mol TotEng Press 
       0          300   -2155.2173            0   -2134.6497    2507.7457 
       1          300   -2155.2173            0   -2134.6497    2507.7458 
Loop time of 0.0015882 on 1 procs for 1 steps with 24 atoms

Performance: 13.600 ns/day, 1.765 hours/ns, 629.644 timesteps/s
0.0% CPU use with 1 MPI tasks x 1 OpenMP threads

MPI task timing breakdown:
Section |  min time  |  avg time  |  max time  |%varavg| %total
---------------------------------------------------------------
Pair    | 0.0007446  | 0.0007446  | 0.0007446  |   0.0 | 46.88
Bond    | 2e-07      | 2e-07      | 2e-07      |   0.0 |  0.01
Neigh   | 1.69e-05   | 1.69e-05   | 1.69e-05   |   0.0 |  1.06
Comm    | 2e-06      | 2e-06      | 2e-06      |   0.0 |  0.13
Output  | 9.6e-06    | 9.6e-06    | 9.6e-06    |   0.0 |  0.60
Modify  | 0.0007982  | 0.0007982  | 0.0007982  |   0.0 | 50.26
Other   |            | 1.67e-05   |            |       |  1.05

Nlocal:        24.0000 ave          24 max          24 min
Histogram: 1 0 0 0 0 0 0 0 0 0
Nghost:         0.00000 ave           0 max           0 min
Histogram: 1 0 0 0 0 0 0 0 0 0
Neighs:        276.000 ave         276 max         276 min
Histogram: 1 0 0 0 0 0 0 0 0 0

Total # of neighbors = 276
Ave neighs/atom = 11.500000
Ave special neighs/atom = 0.0000000
Neighbor list builds = 1
Dangerous builds not checked
print ${mye} append info1.data screen no
print -2134.64967375825 append info1.data screen no
clear
OMP_NUM_THREADS environment is not set. Defaulting to 1 thread. (src/comm.cpp:98)
  using 1 OpenMP thread(s) per MPI task
package omp 0
using multi-threaded neighbor list subroutines
package omp 1
using multi-threaded neighbor list subroutines
next a
jump input.in
# LG30---original density----0.5------100KPS----1000K----500ps--f4
variable a loop 1 399
units real
atom_style full
neighbor 2.0 bin
neigh_modify every 1 delay 0 check no
read_data data_$a
read_data data_4
Reading data file ...
  orthogonal box = (-20.000000 -20.000000 -20.000000) to (20.000000 20.000000 20.000000)
  1 by 1 by 1 MPI processor grid
  reading atoms ...
  24 atoms
Finding 1-2 1-3 1-4 neighbors ...
  special bond factors lj:    0        0        0       
  special bond factors coul:  0        0        0       
     0 = max # of 1-2 neighbors
     0 = max # of 1-3 neighbors
     0 = max # of 1-4 neighbors
     1 = max # of special neighbors
  special bonds CPU = 0.000 seconds
  read_data CPU = 0.002 seconds
pair_style reax/c NULL
pair_coeff * * ffield.reax.cho C H O
WARNING: Changed valency_val to valency_boc for C (src/REAXFF/reaxff_ffield.cpp:296)
WARNING: Changed valency_val to valency_boc for H (src/REAXFF/reaxff_ffield.cpp:296)
WARNING: Changed valency_val to valency_boc for O (src/REAXFF/reaxff_ffield.cpp:296)
timestep 0.25
velocity all create 300.0 4928459 rot yes dist gaussian
fix 3 all qeq/reax 1 0.0 10 1e-6 reax/c
variable mye equal etotal
run 1
Last active /omp style is pair_style reax/c/omp
Neighbor list info ...
  update every 1 steps, delay 0 steps, check no
  max neighbors/atom: 2000, page size: 100000
  master list distance cutoff = 12.0001
  ghost atom cutoff = 12.0001
  binsize = 6.00005, bins = 7 7 7
  2 neighbor lists, perpetual/occasional/extra = 2 0 0
  (1) pair reax/c/omp, perpetual
      attributes: half, newton off, ghost, omp
      pair build: half/bin/newtoff/ghost/omp
      stencil: full/ghost/bin/3d
      bin: standard
  (2) fix qeq/reax/omp, perpetual, copy from (1)
      attributes: half, newton off, ghost
      pair build: copy
      stencil: none
      bin: none
Per MPI rank memory allocation (min/avg/max) = 9.011 | 9.011 | 9.011 Mbytes
Step Temp E_pair E_mol TotEng Press 
       0          300   -2220.8627            0   -2200.2951    2105.4625 
       1          300   -2220.8627            0   -2200.2951    2105.4626 
Loop time of 0.0015373 on 1 procs for 1 steps with 24 atoms

Performance: 14.051 ns/day, 1.708 hours/ns, 650.491 timesteps/s
0.0% CPU use with 1 MPI tasks x 1 OpenMP threads

MPI task timing breakdown:
Section |  min time  |  avg time  |  max time  |%varavg| %total
---------------------------------------------------------------
Pair    | 0.0007131  | 0.0007131  | 0.0007131  |   0.0 | 46.39
Bond    | 2e-07      | 2e-07      | 2e-07      |   0.0 |  0.01
Neigh   | 1.66e-05   | 1.66e-05   | 1.66e-05   |   0.0 |  1.08
Comm    | 2e-06      | 2e-06      | 2e-06      |   0.0 |  0.13
Output  | 9e-06      | 9e-06      | 9e-06      |   0.0 |  0.59
Modify  | 0.00078    | 0.00078    | 0.00078    |   0.0 | 50.74
Other   |            | 1.64e-05   |            |       |  1.07

Nlocal:        24.0000 ave          24 max          24 min
Histogram: 1 0 0 0 0 0 0 0 0 0
Nghost:         0.00000 ave           0 max           0 min
Histogram: 1 0 0 0 0 0 0 0 0 0
Neighs:        276.000 ave         276 max         276 min
Histogram: 1 0 0 0 0 0 0 0 0 0

Total # of neighbors = 276
Ave neighs/atom = 11.500000
Ave special neighs/atom = 0.0000000
Neighbor list builds = 1
Dangerous builds not checked
print ${mye} append info1.data screen no
print -2200.29506342849 append info1.data screen no
clear
OMP_NUM_THREADS environment is not set. Defaulting to 1 thread. (src/comm.cpp:98)
  using 1 OpenMP thread(s) per MPI task
package omp 0
using multi-threaded neighbor list subroutines
package omp 1
using multi-threaded neighbor list subroutines
next a
jump input.in
# LG30---original density----0.5------100KPS----1000K----500ps--f4
variable a loop 1 399
units real
atom_style full
neighbor 2.0 bin
neigh_modify every 1 delay 0 check no
read_data data_$a
read_data data_5
Reading data file ...
  orthogonal box = (-20.000000 -20.000000 -20.000000) to (20.000000 20.000000 20.000000)
  1 by 1 by 1 MPI processor grid
  reading atoms ...
  24 atoms
Finding 1-2 1-3 1-4 neighbors ...
  special bond factors lj:    0        0        0       
  special bond factors coul:  0        0        0       
     0 = max # of 1-2 neighbors
     0 = max # of 1-3 neighbors
     0 = max # of 1-4 neighbors
     1 = max # of special neighbors
  special bonds CPU = 0.000 seconds
  read_data CPU = 0.002 seconds
pair_style reax/c NULL
pair_coeff * * ffield.reax.cho C H O
WARNING: Changed valency_val to valency_boc for C (src/REAXFF/reaxff_ffield.cpp:296)
WARNING: Changed valency_val to valency_boc for H (src/REAXFF/reaxff_ffield.cpp:296)
WARNING: Changed valency_val to valency_boc for O (src/REAXFF/reaxff_ffield.cpp:296)
timestep 0.25
velocity all create 300.0 4928459 rot yes dist gaussian
fix 3 all qeq/reax 1 0.0 10 1e-6 reax/c
variable mye equal etotal
run 1
Last active /omp style is pair_style reax/c/omp
Neighbor list info ...
  update every 1 steps, delay 0 steps, check no
  max neighbors/atom: 2000, page size: 100000
  master list distance cutoff = 12.0001
  ghost atom cutoff = 12.0001
  binsize = 6.00005, bins = 7 7 7
  2 neighbor lists, perpetual/occasional/extra = 2 0 0
  (1) pair reax/c/omp, perpetual
      attributes: half, newton off, ghost, omp
      pair build: half/bin/newtoff/ghost/omp
      stencil: full/ghost/bin/3d
      bin: standard
  (2) fix qeq/reax/omp, perpetual, copy from (1)
      attributes: half, newton off, ghost
      pair build: copy
      stencil: none
      bin: none
Per MPI rank memory allocation (min/avg/max) = 9.011 | 9.011 | 9.011 Mbytes
Step Temp E_pair E_mol TotEng Press 
       0          300   -2289.8837            0   -2269.3161    2091.4227 
       1          300   -2289.8837            0   -2269.3161    2091.4226 
Loop time of 0.0015081 on 1 procs for 1 steps with 24 atoms

Performance: 14.323 ns/day, 1.676 hours/ns, 663.086 timesteps/s
0.0% CPU use with 1 MPI tasks x 1 OpenMP threads

MPI task timing breakdown:
Section |  min time  |  avg time  |  max time  |%varavg| %total
---------------------------------------------------------------
Pair    | 0.0007126  | 0.0007126  | 0.0007126  |   0.0 | 47.25
Bond    | 1e-07      | 1e-07      | 1e-07      |   0.0 |  0.01
Neigh   | 1.63e-05   | 1.63e-05   | 1.63e-05   |   0.0 |  1.08
Comm    | 2e-06      | 2e-06      | 2e-06      |   0.0 |  0.13
Output  | 8.7e-06    | 8.7e-06    | 8.7e-06    |   0.0 |  0.58
Modify  | 0.0007524  | 0.0007524  | 0.0007524  |   0.0 | 49.89
Other   |            | 1.6e-05    |            |       |  1.06

Nlocal:        24.0000 ave          24 max          24 min
Histogram: 1 0 0 0 0 0 0 0 0 0
Nghost:         0.00000 ave           0 max           0 min
Histogram: 1 0 0 0 0 0 0 0 0 0
Neighs:        276.000 ave         276 max         276 min
Histogram: 1 0 0 0 0 0 0 0 0 0

Total # of neighbors = 276
Ave neighs/atom = 11.500000
Ave special neighs/atom = 0.0000000
Neighbor list builds = 1
Dangerous builds not checked
print ${mye} append info1.data screen no
print -2269.31607228358 append info1.data screen no
clear
OMP_NUM_THREADS environment is not set. Defaulting to 1 thread. (src/comm.cpp:98)
  using 1 OpenMP thread(s) per MPI task
package omp 0
using multi-threaded neighbor list subroutines
package omp 1
using multi-threaded neighbor list subroutines
next a
jump input.in
# LG30---original density----0.5------100KPS----1000K----500ps--f4
variable a loop 1 399
units real
atom_style full
neighbor 2.0 bin
neigh_modify every 1 delay 0 check no
read_data data_$a
read_data data_6
Reading data file ...
  orthogonal box = (-20.000000 -20.000000 -20.000000) to (20.000000 20.000000 20.000000)
  1 by 1 by 1 MPI processor grid
  reading atoms ...
  24 atoms
Finding 1-2 1-3 1-4 neighbors ...
  special bond factors lj:    0        0        0       
  special bond factors coul:  0        0        0       
     0 = max # of 1-2 neighbors
     0 = max # of 1-3 neighbors
     0 = max # of 1-4 neighbors
     1 = max # of special neighbors
  special bonds CPU = 0.000 seconds
  read_data CPU = 0.002 seconds
pair_style reax/c NULL
pair_coeff * * ffield.reax.cho C H O
WARNING: Changed valency_val to valency_boc for C (src/REAXFF/reaxff_ffield.cpp:296)
WARNING: Changed valency_val to valency_boc for H (src/REAXFF/reaxff_ffield.cpp:296)
WARNING: Changed valency_val to valency_boc for O (src/REAXFF/reaxff_ffield.cpp:296)
timestep 0.25
velocity all create 300.0 4928459 rot yes dist gaussian
fix 3 all qeq/reax 1 0.0 10 1e-6 reax/c
variable mye equal etotal
run 1
Last active /omp style is pair_style reax/c/omp
Neighbor list info ...
  update every 1 steps, delay 0 steps, check no
  max neighbors/atom: 2000, page size: 100000
  master list distance cutoff = 12.0001
  ghost atom cutoff = 12.0001
  binsize = 6.00005, bins = 7 7 7
  2 neighbor lists, perpetual/occasional/extra = 2 0 0
  (1) pair reax/c/omp, perpetual
      attributes: half, newton off, ghost, omp
      pair build: half/bin/newtoff/ghost/omp
      stencil: full/ghost/bin/3d
      bin: standard
  (2) fix qeq/reax/omp, perpetual, copy from (1)
      attributes: half, newton off, ghost
      pair build: copy
      stencil: none
      bin: none
Per MPI rank memory allocation (min/avg/max) = 9.011 | 9.011 | 9.011 Mbytes
Step Temp E_pair E_mol TotEng Press 
       0          300   -2358.2646            0    -2337.697    2020.7218 
       1          300   -2358.2646            0    -2337.697    2020.7217 
Loop time of 0.0015243 on 1 procs for 1 steps with 24 atoms

Performance: 14.170 ns/day, 1.694 hours/ns, 656.039 timesteps/s
0.0% CPU use with 1 MPI tasks x 1 OpenMP threads

MPI task timing breakdown:
Section |  min time  |  avg time  |  max time  |%varavg| %total
---------------------------------------------------------------
Pair    | 0.000712   | 0.000712   | 0.000712   |   0.0 | 46.71
Bond    | 1e-07      | 1e-07      | 1e-07      |   0.0 |  0.01
Neigh   | 1.64e-05   | 1.64e-05   | 1.64e-05   |   0.0 |  1.08
Comm    | 2.1e-06    | 2.1e-06    | 2.1e-06    |   0.0 |  0.14
Output  | 8.6e-06    | 8.6e-06    | 8.6e-06    |   0.0 |  0.56
Modify  | 0.0007691  | 0.0007691  | 0.0007691  |   0.0 | 50.46
Other   |            | 1.6e-05    |            |       |  1.05

Nlocal:        24.0000 ave          24 max          24 min
Histogram: 1 0 0 0 0 0 0 0 0 0
Nghost:         0.00000 ave           0 max           0 min
Histogram: 1 0 0 0 0 0 0 0 0 0
Neighs:        276.000 ave         276 max         276 min
Histogram: 1 0 0 0 0 0 0 0 0 0

Total # of neighbors = 276
Ave neighs/atom = 11.500000
Ave special neighs/atom = 0.0000000
Neighbor list builds = 1
Dangerous builds not checked
print ${mye} append info1.data screen no
print -2337.69702310753 append info1.data screen no
clear
OMP_NUM_THREADS environment is not set. Defaulting to 1 thread. (src/comm.cpp:98)
  using 1 OpenMP thread(s) per MPI task
package omp 0
using multi-threaded neighbor list subroutines
package omp 1
using multi-threaded neighbor list subroutines
next a
jump input.in
# LG30---original density----0.5------100KPS----1000K----500ps--f4
variable a loop 1 399
units real
atom_style full
neighbor 2.0 bin
neigh_modify every 1 delay 0 check no
read_data data_$a
read_data data_7
Reading data file ...
  orthogonal box = (-20.000000 -20.000000 -20.000000) to (20.000000 20.000000 20.000000)
  1 by 1 by 1 MPI processor grid
  reading atoms ...
  24 atoms
Finding 1-2 1-3 1-4 neighbors ...
  special bond factors lj:    0        0        0       
  special bond factors coul:  0        0        0       
     0 = max # of 1-2 neighbors
     0 = max # of 1-3 neighbors
     0 = max # of 1-4 neighbors
     1 = max # of special neighbors
  special bonds CPU = 0.000 seconds
  read_data CPU = 0.002 seconds
pair_style reax/c NULL
pair_coeff * * ffield.reax.cho C H O
WARNING: Changed valency_val to valency_boc for C (src/REAXFF/reaxff_ffield.cpp:296)
WARNING: Changed valency_val to valency_boc for H (src/REAXFF/reaxff_ffield.cpp:296)
WARNING: Changed valency_val to valency_boc for O (src/REAXFF/reaxff_ffield.cpp:296)
timestep 0.25
velocity all create 300.0 4928459 rot yes dist gaussian
fix 3 all qeq/reax 1 0.0 10 1e-6 reax/c
variable mye equal etotal
run 1
Last active /omp style is pair_style reax/c/omp
Neighbor list info ...
  update every 1 steps, delay 0 steps, check no
  max neighbors/atom: 2000, page size: 100000
  master list distance cutoff = 12.0001
  ghost atom cutoff = 12.0001
  binsize = 6.00005, bins = 7 7 7
  2 neighbor lists, perpetual/occasional/extra = 2 0 0
  (1) pair reax/c/omp, perpetual
      attributes: half, newton off, ghost, omp
      pair build: half/bin/newtoff/ghost/omp
      stencil: full/ghost/bin/3d
      bin: standard
  (2) fix qeq/reax/omp, perpetual, copy from (1)
      attributes: half, newton off, ghost
      pair build: copy
      stencil: none
      bin: none
Per MPI rank memory allocation (min/avg/max) = 9.011 | 9.011 | 9.011 Mbytes
Step Temp E_pair E_mol TotEng Press 
       0          300   -2427.3939            0   -2406.8263    1939.7966 
       1          300   -2427.3939            0   -2406.8263    1939.7965 
Loop time of 0.0015109 on 1 procs for 1 steps with 24 atoms

Performance: 14.296 ns/day, 1.679 hours/ns, 661.857 timesteps/s
0.0% CPU use with 1 MPI tasks x 1 OpenMP threads

MPI task timing breakdown:
Section |  min time  |  avg time  |  max time  |%varavg| %total
---------------------------------------------------------------
Pair    | 0.0007102  | 0.0007102  | 0.0007102  |   0.0 | 47.01
Bond    | 1e-07      | 1e-07      | 1e-07      |   0.0 |  0.01
Neigh   | 1.71e-05   | 1.71e-05   | 1.71e-05   |   0.0 |  1.13
Comm    | 2e-06      | 2e-06      | 2e-06      |   0.0 |  0.13
Output  | 8.8e-06    | 8.8e-06    | 8.8e-06    |   0.0 |  0.58
Modify  | 0.0007563  | 0.0007563  | 0.0007563  |   0.0 | 50.06
Other   |            | 1.64e-05   |            |       |  1.09

Nlocal:        24.0000 ave          24 max          24 min
Histogram: 1 0 0 0 0 0 0 0 0 0
Nghost:         0.00000 ave           0 max           0 min
Histogram: 1 0 0 0 0 0 0 0 0 0
Neighs:        276.000 ave         276 max         276 min
Histogram: 1 0 0 0 0 0 0 0 0 0

Total # of neighbors = 276
Ave neighs/atom = 11.500000
Ave special neighs/atom = 0.0000000
Neighbor list builds = 1
Dangerous builds not checked
print ${mye} append info1.data screen no
print -2406.82630077625 append info1.data screen no
clear
OMP_NUM_THREADS environment is not set. Defaulting to 1 thread. (src/comm.cpp:98)
  using 1 OpenMP thread(s) per MPI task
package omp 0
using multi-threaded neighbor list subroutines
package omp 1
using multi-threaded neighbor list subroutines
next a
jump input.in
# LG30---original density----0.5------100KPS----1000K----500ps--f4
variable a loop 1 399
units real
atom_style full
neighbor 2.0 bin
neigh_modify every 1 delay 0 check no
read_data data_$a
read_data data_8
Reading data file ...
  orthogonal box = (-20.000000 -20.000000 -20.000000) to (20.000000 20.000000 20.000000)
  1 by 1 by 1 MPI processor grid
  reading atoms ...
  24 atoms
Finding 1-2 1-3 1-4 neighbors ...
  special bond factors lj:    0        0        0       
  special bond factors coul:  0        0        0       
     0 = max # of 1-2 neighbors
     0 = max # of 1-3 neighbors
     0 = max # of 1-4 neighbors
     1 = max # of special neighbors
  special bonds CPU = 0.000 seconds
  read_data CPU = 0.002 seconds
pair_style reax/c NULL
pair_coeff * * ffield.reax.cho C H O
WARNING: Changed valency_val to valency_boc for C (src/REAXFF/reaxff_ffield.cpp:296)
WARNING: Changed valency_val to valency_boc for H (src/REAXFF/reaxff_ffield.cpp:296)
WARNING: Changed valency_val to valency_boc for O (src/REAXFF/reaxff_ffield.cpp:296)
timestep 0.25
velocity all create 300.0 4928459 rot yes dist gaussian
fix 3 all qeq/reax 1 0.0 10 1e-6 reax/c
variable mye equal etotal
run 1
Last active /omp style is pair_style reax/c/omp
Neighbor list info ...
  update every 1 steps, delay 0 steps, check no
  max neighbors/atom: 2000, page size: 100000
  master list distance cutoff = 12.0001
  ghost atom cutoff = 12.0001
  binsize = 6.00005, bins = 7 7 7
  2 neighbor lists, perpetual/occasional/extra = 2 0 0
  (1) pair reax/c/omp, perpetual
      attributes: half, newton off, ghost, omp
      pair build: half/bin/newtoff/ghost/omp
      stencil: full/ghost/bin/3d
      bin: standard
  (2) fix qeq/reax/omp, perpetual, copy from (1)
      attributes: half, newton off, ghost
      pair build: copy
      stencil: none
      bin: none
Per MPI rank memory allocation (min/avg/max) = 9.011 | 9.011 | 9.011 Mbytes
Step Temp E_pair E_mol TotEng Press 
       0          300   -2490.4731            0   -2469.9055    1834.8981 
       1          300   -2490.4731            0   -2469.9055    1834.8981 
Loop time of 0.0014984 on 1 procs for 1 steps with 24 atoms

Performance: 14.415 ns/day, 1.665 hours/ns, 667.379 timesteps/s
0.0% CPU use with 1 MPI tasks x 1 OpenMP threads

MPI task timing breakdown:
Section |  min time  |  avg time  |  max time  |%varavg| %total
---------------------------------------------------------------
Pair    | 0.0007077  | 0.0007077  | 0.0007077  |   0.0 | 47.23
Bond    | 1e-07      | 1e-07      | 1e-07      |   0.0 |  0.01
Neigh   | 1.71e-05   | 1.71e-05   | 1.71e-05   |   0.0 |  1.14
Comm    | 2e-06      | 2e-06      | 2e-06      |   0.0 |  0.13
Output  | 9e-06      | 9e-06      | 9e-06      |   0.0 |  0.60
Modify  | 0.0007455  | 0.0007455  | 0.0007455  |   0.0 | 49.75
Other   |            | 1.7e-05    |            |       |  1.13

Nlocal:        24.0000 ave          24 max          24 min
Histogram: 1 0 0 0 0 0 0 0 0 0
Nghost:         0.00000 ave           0 max           0 min
Histogram: 1 0 0 0 0 0 0 0 0 0
Neighs:        276.000 ave         276 max         276 min
Histogram: 1 0 0 0 0 0 0 0 0 0

Total # of neighbors = 276
Ave neighs/atom = 11.500000
Ave special neighs/atom = 0.0000000
Neighbor list builds = 1
Dangerous builds not checked
print ${mye} append info1.data screen no
print -2469.90547398838 append info1.data screen no
clear
OMP_NUM_THREADS environment is not set. Defaulting to 1 thread. (src/comm.cpp:98)
  using 1 OpenMP thread(s) per MPI task
package omp 0
using multi-threaded neighbor list subroutines
package omp 1
using multi-threaded neighbor list subroutines
next a
jump input.in
# LG30---original density----0.5------100KPS----1000K----500ps--f4
variable a loop 1 399
units real
atom_style full
neighbor 2.0 bin
neigh_modify every 1 delay 0 check no
read_data data_$a
read_data data_9
Reading data file ...
  orthogonal box = (-20.000000 -20.000000 -20.000000) to (20.000000 20.000000 20.000000)
  1 by 1 by 1 MPI processor grid
  reading atoms ...
  24 atoms
Finding 1-2 1-3 1-4 neighbors ...
  special bond factors lj:    0        0        0       
  special bond factors coul:  0        0        0       
     0 = max # of 1-2 neighbors
     0 = max # of 1-3 neighbors
     0 = max # of 1-4 neighbors
     1 = max # of special neighbors
  special bonds CPU = 0.000 seconds
  read_data CPU = 0.002 seconds
pair_style reax/c NULL
pair_coeff * * ffield.reax.cho C H O
WARNING: Changed valency_val to valency_boc for C (src/REAXFF/reaxff_ffield.cpp:296)
WARNING: Changed valency_val to valency_boc for H (src/REAXFF/reaxff_ffield.cpp:296)
WARNING: Changed valency_val to valency_boc for O (src/REAXFF/reaxff_ffield.cpp:296)
timestep 0.25
velocity all create 300.0 4928459 rot yes dist gaussian
fix 3 all qeq/reax 1 0.0 10 1e-6 reax/c
variable mye equal etotal
run 1
Last active /omp style is pair_style reax/c/omp
Neighbor list info ...
  update every 1 steps, delay 0 steps, check no
  max neighbors/atom: 2000, page size: 100000
  master list distance cutoff = 12.0001
  ghost atom cutoff = 12.0001
  binsize = 6.00005, bins = 7 7 7
  2 neighbor lists, perpetual/occasional/extra = 2 0 0
  (1) pair reax/c/omp, perpetual
      attributes: half, newton off, ghost, omp
      pair build: half/bin/newtoff/ghost/omp
      stencil: full/ghost/bin/3d
      bin: standard
  (2) fix qeq/reax/omp, perpetual, copy from (1)
      attributes: half, newton off, ghost
      pair build: copy
      stencil: none
      bin: none
Per MPI rank memory allocation (min/avg/max) = 9.011 | 9.011 | 9.011 Mbytes
Step Temp E_pair E_mol TotEng Press 
       0          300   -2557.2794            0   -2536.7118    1896.2427 
       1          300   -2557.2794            0   -2536.7118    1896.2428 
Loop time of 0.0014958 on 1 procs for 1 steps with 24 atoms

Performance: 14.440 ns/day, 1.662 hours/ns, 668.539 timesteps/s
0.0% CPU use with 1 MPI tasks x 1 OpenMP threads

MPI task timing breakdown:
Section |  min time  |  avg time  |  max time  |%varavg| %total
---------------------------------------------------------------
Pair    | 0.0007278  | 0.0007278  | 0.0007278  |   0.0 | 48.66
Bond    | 1e-07      | 1e-07      | 1e-07      |   0.0 |  0.01
Neigh   | 1.74e-05   | 1.74e-05   | 1.74e-05   |   0.0 |  1.16
Comm    | 2e-06      | 2e-06      | 2e-06      |   0.0 |  0.13
Output  | 9e-06      | 9e-06      | 9e-06      |   0.0 |  0.60
Modify  | 0.0007226  | 0.0007226  | 0.0007226  |   0.0 | 48.31
Other   |            | 1.69e-05   |            |       |  1.13

Nlocal:        24.0000 ave          24 max          24 min
Histogram: 1 0 0 0 0 0 0 0 0 0
Nghost:         0.00000 ave           0 max           0 min
Histogram: 1 0 0 0 0 0 0 0 0 0
Neighs:        276.000 ave         276 max         276 min
Histogram: 1 0 0 0 0 0 0 0 0 0

Total # of neighbors = 276
Ave neighs/atom = 11.500000
Ave special neighs/atom = 0.0000000
Neighbor list builds = 1
Dangerous builds not checked
print ${mye} append info1.data screen no
print -2536.71182963045 append info1.data screen no
clear
OMP_NUM_THREADS environment is not set. Defaulting to 1 thread. (src/comm.cpp:98)
  using 1 OpenMP thread(s) per MPI task
package omp 0
using multi-threaded neighbor list subroutines
package omp 1
using multi-threaded neighbor list subroutines
next a
jump input.in
# LG30---original density----0.5------100KPS----1000K----500ps--f4
variable a loop 1 399
units real
atom_style full
neighbor 2.0 bin
neigh_modify every 1 delay 0 check no
read_data data_$a
read_data data_10
Reading data file ...
  orthogonal box = (-20.000000 -20.000000 -20.000000) to (20.000000 20.000000 20.000000)
  1 by 1 by 1 MPI processor grid
  reading atoms ...
  24 atoms
Finding 1-2 1-3 1-4 neighbors ...
  special bond factors lj:    0        0        0       
  special bond factors coul:  0        0        0       
     0 = max # of 1-2 neighbors
     0 = max # of 1-3 neighbors
     0 = max # of 1-4 neighbors
     1 = max # of special neighbors
  special bonds CPU = 0.000 seconds
  read_data CPU = 0.002 seconds
pair_style reax/c NULL
pair_coeff * * ffield.reax.cho C H O
WARNING: Changed valency_val to valency_boc for C (src/REAXFF/reaxff_ffield.cpp:296)
WARNING: Changed valency_val to valency_boc for H (src/REAXFF/reaxff_ffield.cpp:296)
WARNING: Changed valency_val to valency_boc for O (src/REAXFF/reaxff_ffield.cpp:296)
timestep 0.25
velocity all create 300.0 4928459 rot yes dist gaussian
fix 3 all qeq/reax 1 0.0 10 1e-6 reax/c
variable mye equal etotal
run 1
Last active /omp style is pair_style reax/c/omp
Neighbor list info ...
  update every 1 steps, delay 0 steps, check no
  max neighbors/atom: 2000, page size: 100000
  master list distance cutoff = 12.0001
  ghost atom cutoff = 12.0001
  binsize = 6.00005, bins = 7 7 7
  2 neighbor lists, perpetual/occasional/extra = 2 0 0
  (1) pair reax/c/omp, perpetual
      attributes: half, newton off, ghost, omp
      pair build: half/bin/newtoff/ghost/omp
      stencil: full/ghost/bin/3d
      bin: standard
  (2) fix qeq/reax/omp, perpetual, copy from (1)
      attributes: half, newton off, ghost
      pair build: copy
      stencil: none
      bin: none
Per MPI rank memory allocation (min/avg/max) = 9.011 | 9.011 | 9.011 Mbytes
Step Temp E_pair E_mol TotEng Press 
       0          300   -2625.1988            0   -2604.6312    1839.5548 
       1          300   -2625.1988            0   -2604.6312    1839.5549 
Loop time of 0.0014436 on 1 procs for 1 steps with 24 atoms

Performance: 14.963 ns/day, 1.604 hours/ns, 692.713 timesteps/s
1082.4% CPU use with 1 MPI tasks x 1 OpenMP threads

MPI task timing breakdown:
Section |  min time  |  avg time  |  max time  |%varavg| %total
---------------------------------------------------------------
Pair    | 0.0006771  | 0.0006771  | 0.0006771  |   0.0 | 46.90
Bond    | 1e-07      | 1e-07      | 1e-07      |   0.0 |  0.01
Neigh   | 1.68e-05   | 1.68e-05   | 1.68e-05   |   0.0 |  1.16
Comm    | 2e-06      | 2e-06      | 2e-06      |   0.0 |  0.14
Output  | 9.5e-06    | 9.5e-06    | 9.5e-06    |   0.0 |  0.66
Modify  | 0.0007224  | 0.0007224  | 0.0007224  |   0.0 | 50.04
Other   |            | 1.57e-05   |            |       |  1.09

Nlocal:        24.0000 ave          24 max          24 min
Histogram: 1 0 0 0 0 0 0 0 0 0
Nghost:         0.00000 ave           0 max           0 min
Histogram: 1 0 0 0 0 0 0 0 0 0
Neighs:        276.000 ave         276 max         276 min
Histogram: 1 0 0 0 0 0 0 0 0 0

Total # of neighbors = 276
Ave neighs/atom = 11.500000
Ave special neighs/atom = 0.0000000
Neighbor list builds = 1
Dangerous builds not checked
print ${mye} append info1.data screen no
print -2604.63118049075 append info1.data screen no
clear
OMP_NUM_THREADS environment is not set. Defaulting to 1 thread. (src/comm.cpp:98)
  using 1 OpenMP thread(s) per MPI task
package omp 0
using multi-threaded neighbor list subroutines
package omp 1
using multi-threaded neighbor list subroutines
next a
jump input.in
# LG30---original density----0.5------100KPS----1000K----500ps--f4
variable a loop 1 399
units real
atom_style full
neighbor 2.0 bin
neigh_modify every 1 delay 0 check no
read_data data_$a
read_data data_11
Reading data file ...
  orthogonal box = (-20.000000 -20.000000 -20.000000) to (20.000000 20.000000 20.000000)
  1 by 1 by 1 MPI processor grid
  reading atoms ...
  24 atoms
Finding 1-2 1-3 1-4 neighbors ...
  special bond factors lj:    0        0        0       
  special bond factors coul:  0        0        0       
     0 = max # of 1-2 neighbors
     0 = max # of 1-3 neighbors
     0 = max # of 1-4 neighbors
     1 = max # of special neighbors
  special bonds CPU = 0.000 seconds
  read_data CPU = 0.002 seconds
pair_style reax/c NULL
pair_coeff * * ffield.reax.cho C H O
WARNING: Changed valency_val to valency_boc for C (src/REAXFF/reaxff_ffield.cpp:296)
WARNING: Changed valency_val to valency_boc for H (src/REAXFF/reaxff_ffield.cpp:296)
WARNING: Changed valency_val to valency_boc for O (src/REAXFF/reaxff_ffield.cpp:296)
timestep 0.25
velocity all create 300.0 4928459 rot yes dist gaussian
fix 3 all qeq/reax 1 0.0 10 1e-6 reax/c
variable mye equal etotal
run 1
Last active /omp style is pair_style reax/c/omp
Neighbor list info ...
  update every 1 steps, delay 0 steps, check no
  max neighbors/atom: 2000, page size: 100000
  master list distance cutoff = 12.0001
  ghost atom cutoff = 12.0001
  binsize = 6.00005, bins = 7 7 7
  2 neighbor lists, perpetual/occasional/extra = 2 0 0
  (1) pair reax/c/omp, perpetual
      attributes: half, newton off, ghost, omp
      pair build: half/bin/newtoff/ghost/omp
      stencil: full/ghost/bin/3d
      bin: standard
  (2) fix qeq/reax/omp, perpetual, copy from (1)
      attributes: half, newton off, ghost
      pair build: copy
      stencil: none
      bin: none
Per MPI rank memory allocation (min/avg/max) = 9.011 | 9.011 | 9.011 Mbytes
Step Temp E_pair E_mol TotEng Press 
       0          300   -2671.3456            0    -2650.778    1821.4369 
       1          300   -2671.3456            0    -2650.778     1821.437 
Loop time of 0.0014068 on 1 procs for 1 steps with 24 atoms

Performance: 15.354 ns/day, 1.563 hours/ns, 710.833 timesteps/s
0.0% CPU use with 1 MPI tasks x 1 OpenMP threads

MPI task timing breakdown:
Section |  min time  |  avg time  |  max time  |%varavg| %total
---------------------------------------------------------------
Pair    | 0.0006729  | 0.0006729  | 0.0006729  |   0.0 | 47.83
Bond    | 1e-07      | 1e-07      | 1e-07      |   0.0 |  0.01
Neigh   | 1.68e-05   | 1.68e-05   | 1.68e-05   |   0.0 |  1.19
Comm    | 1.9e-06    | 1.9e-06    | 1.9e-06    |   0.0 |  0.14
Output  | 8.8e-06    | 8.8e-06    | 8.8e-06    |   0.0 |  0.63
Modify  | 0.0006904  | 0.0006904  | 0.0006904  |   0.0 | 49.08
Other   |            | 1.59e-05   |            |       |  1.13

Nlocal:        24.0000 ave          24 max          24 min
Histogram: 1 0 0 0 0 0 0 0 0 0
Nghost:         0.00000 ave           0 max           0 min
Histogram: 1 0 0 0 0 0 0 0 0 0
Neighs:        276.000 ave         276 max         276 min
Histogram: 1 0 0 0 0 0 0 0 0 0

Total # of neighbors = 276
Ave neighs/atom = 11.500000
Ave special neighs/atom = 0.0000000
Neighbor list builds = 1
Dangerous builds not checked
print ${mye} append info1.data screen no
print -2650.77796141429 append info1.data screen no
clear
OMP_NUM_THREADS environment is not set. Defaulting to 1 thread. (src/comm.cpp:98)
  using 1 OpenMP thread(s) per MPI task
package omp 0
using multi-threaded neighbor list subroutines
package omp 1
using multi-threaded neighbor list subroutines
next a
jump input.in
# LG30---original density----0.5------100KPS----1000K----500ps--f4
variable a loop 1 399
units real
atom_style full
neighbor 2.0 bin
neigh_modify every 1 delay 0 check no
read_data data_$a
read_data data_12
Reading data file ...
  orthogonal box = (-20.000000 -20.000000 -20.000000) to (20.000000 20.000000 20.000000)
  1 by 1 by 1 MPI processor grid
  reading atoms ...
  24 atoms
Finding 1-2 1-3 1-4 neighbors ...
  special bond factors lj:    0        0        0       
  special bond factors coul:  0        0        0       
     0 = max # of 1-2 neighbors
     0 = max # of 1-3 neighbors
     0 = max # of 1-4 neighbors
     1 = max # of special neighbors
  special bonds CPU = 0.000 seconds
  read_data CPU = 0.002 seconds
pair_style reax/c NULL
pair_coeff * * ffield.reax.cho C H O
WARNING: Changed valency_val to valency_boc for C (src/REAXFF/reaxff_ffield.cpp:296)
WARNING: Changed valency_val to valency_boc for H (src/REAXFF/reaxff_ffield.cpp:296)
WARNING: Changed valency_val to valency_boc for O (src/REAXFF/reaxff_ffield.cpp:296)
timestep 0.25
velocity all create 300.0 4928459 rot yes dist gaussian
fix 3 all qeq/reax 1 0.0 10 1e-6 reax/c
variable mye equal etotal
run 1
Last active /omp style is pair_style reax/c/omp
Neighbor list info ...
  update every 1 steps, delay 0 steps, check no
  max neighbors/atom: 2000, page size: 100000
  master list distance cutoff = 12.0001
  ghost atom cutoff = 12.0001
  binsize = 6.00005, bins = 7 7 7
  2 neighbor lists, perpetual/occasional/extra = 2 0 0
  (1) pair reax/c/omp, perpetual
      attributes: half, newton off, ghost, omp
      pair build: half/bin/newtoff/ghost/omp
      stencil: full/ghost/bin/3d
      bin: standard
  (2) fix qeq/reax/omp, perpetual, copy from (1)
      attributes: half, newton off, ghost
      pair build: copy
      stencil: none
      bin: none
Per MPI rank memory allocation (min/avg/max) = 9.011 | 9.011 | 9.011 Mbytes
Step Temp E_pair E_mol TotEng Press 
       0          300   -2710.2725            0   -2689.7049    1718.7628 
       1          300   -2710.2725            0   -2689.7049    1718.7629 
Loop time of 0.0013769 on 1 procs for 1 steps with 24 atoms

Performance: 15.687 ns/day, 1.530 hours/ns, 726.269 timesteps/s
0.0% CPU use with 1 MPI tasks x 1 OpenMP threads

MPI task timing breakdown:
Section |  min time  |  avg time  |  max time  |%varavg| %total
---------------------------------------------------------------
Pair    | 0.0006643  | 0.0006643  | 0.0006643  |   0.0 | 48.25
Bond    | 1e-07      | 1e-07      | 1e-07      |   0.0 |  0.01
Neigh   | 1.67e-05   | 1.67e-05   | 1.67e-05   |   0.0 |  1.21
Comm    | 1.9e-06    | 1.9e-06    | 1.9e-06    |   0.0 |  0.14
Output  | 8.9e-06    | 8.9e-06    | 8.9e-06    |   0.0 |  0.65
Modify  | 0.0006694  | 0.0006694  | 0.0006694  |   0.0 | 48.62
Other   |            | 1.56e-05   |            |       |  1.13

Nlocal:        24.0000 ave          24 max          24 min
Histogram: 1 0 0 0 0 0 0 0 0 0
Nghost:         0.00000 ave           0 max           0 min
Histogram: 1 0 0 0 0 0 0 0 0 0
Neighs:        276.000 ave         276 max         276 min
Histogram: 1 0 0 0 0 0 0 0 0 0

Total # of neighbors = 276
Ave neighs/atom = 11.500000
Ave special neighs/atom = 0.0000000
Neighbor list builds = 1
Dangerous builds not checked
print ${mye} append info1.data screen no
print -2689.70492614064 append info1.data screen no
clear
OMP_NUM_THREADS environment is not set. Defaulting to 1 thread. (src/comm.cpp:98)
  using 1 OpenMP thread(s) per MPI task
package omp 0
using multi-threaded neighbor list subroutines
package omp 1
using multi-threaded neighbor list subroutines
next a
jump input.in
# LG30---original density----0.5------100KPS----1000K----500ps--f4
variable a loop 1 399
units real
atom_style full
neighbor 2.0 bin
neigh_modify every 1 delay 0 check no
read_data data_$a
read_data data_13
Reading data file ...
  orthogonal box = (-20.000000 -20.000000 -20.000000) to (20.000000 20.000000 20.000000)
  1 by 1 by 1 MPI processor grid
  reading atoms ...
  24 atoms
Finding 1-2 1-3 1-4 neighbors ...
  special bond factors lj:    0        0        0       
  special bond factors coul:  0        0        0       
     0 = max # of 1-2 neighbors
     0 = max # of 1-3 neighbors
     0 = max # of 1-4 neighbors
     1 = max # of special neighbors
  special bonds CPU = 0.000 seconds
  read_data CPU = 0.002 seconds
pair_style reax/c NULL
pair_coeff * * ffield.reax.cho C H O
WARNING: Changed valency_val to valency_boc for C (src/REAXFF/reaxff_ffield.cpp:296)
WARNING: Changed valency_val to valency_boc for H (src/REAXFF/reaxff_ffield.cpp:296)
WARNING: Changed valency_val to valency_boc for O (src/REAXFF/reaxff_ffield.cpp:296)
timestep 0.25
velocity all create 300.0 4928459 rot yes dist gaussian
fix 3 all qeq/reax 1 0.0 10 1e-6 reax/c
variable mye equal etotal
run 1
Last active /omp style is pair_style reax/c/omp
Neighbor list info ...
  update every 1 steps, delay 0 steps, check no
  max neighbors/atom: 2000, page size: 100000
  master list distance cutoff = 12.0001
  ghost atom cutoff = 12.0001
  binsize = 6.00005, bins = 7 7 7
  2 neighbor lists, perpetual/occasional/extra = 2 0 0
  (1) pair reax/c/omp, perpetual
      attributes: half, newton off, ghost, omp
      pair build: half/bin/newtoff/ghost/omp
      stencil: full/ghost/bin/3d
      bin: standard
  (2) fix qeq/reax/omp, perpetual, copy from (1)
      attributes: half, newton off, ghost
      pair build: copy
      stencil: none
      bin: none
Per MPI rank memory allocation (min/avg/max) = 9.011 | 9.011 | 9.011 Mbytes
Step Temp E_pair E_mol TotEng Press 
       0          300    -2741.824            0   -2721.2564     1525.767 
       1          300    -2741.824            0   -2721.2564     1525.767 
Loop time of 0.001366 on 1 procs for 1 steps with 24 atoms

Performance: 15.813 ns/day, 1.518 hours/ns, 732.064 timesteps/s
0.0% CPU use with 1 MPI tasks x 1 OpenMP threads

MPI task timing breakdown:
Section |  min time  |  avg time  |  max time  |%varavg| %total
---------------------------------------------------------------
Pair    | 0.0006752  | 0.0006752  | 0.0006752  |   0.0 | 49.43
Bond    | 1e-07      | 1e-07      | 1e-07      |   0.0 |  0.01
Neigh   | 1.64e-05   | 1.64e-05   | 1.64e-05   |   0.0 |  1.20
Comm    | 1.8e-06    | 1.8e-06    | 1.8e-06    |   0.0 |  0.13
Output  | 8.8e-06    | 8.8e-06    | 8.8e-06    |   0.0 |  0.64
Modify  | 0.0006478  | 0.0006478  | 0.0006478  |   0.0 | 47.42
Other   |            | 1.59e-05   |            |       |  1.16

Nlocal:        24.0000 ave          24 max          24 min
Histogram: 1 0 0 0 0 0 0 0 0 0
Nghost:         0.00000 ave           0 max           0 min
Histogram: 1 0 0 0 0 0 0 0 0 0
Neighs:        276.000 ave         276 max         276 min
Histogram: 1 0 0 0 0 0 0 0 0 0

Total # of neighbors = 276
Ave neighs/atom = 11.500000
Ave special neighs/atom = 0.0000000
Neighbor list builds = 1
Dangerous builds not checked
print ${mye} append info1.data screen no
print -2721.25642658016 append info1.data screen no
clear
OMP_NUM_THREADS environment is not set. Defaulting to 1 thread. (src/comm.cpp:98)
  using 1 OpenMP thread(s) per MPI task
package omp 0
using multi-threaded neighbor list subroutines
package omp 1
using multi-threaded neighbor list subroutines
next a
jump input.in
# LG30---original density----0.5------100KPS----1000K----500ps--f4
variable a loop 1 399
units real
atom_style full
neighbor 2.0 bin
neigh_modify every 1 delay 0 check no
read_data data_$a
read_data data_14
Reading data file ...
  orthogonal box = (-20.000000 -20.000000 -20.000000) to (20.000000 20.000000 20.000000)
  1 by 1 by 1 MPI processor grid
  reading atoms ...
  24 atoms
Finding 1-2 1-3 1-4 neighbors ...
  special bond factors lj:    0        0        0       
  special bond factors coul:  0        0        0       
     0 = max # of 1-2 neighbors
     0 = max # of 1-3 neighbors
     0 = max # of 1-4 neighbors
     1 = max # of special neighbors
  special bonds CPU = 0.000 seconds
  read_data CPU = 0.002 seconds
pair_style reax/c NULL
pair_coeff * * ffield.reax.cho C H O
WARNING: Changed valency_val to valency_boc for C (src/REAXFF/reaxff_ffield.cpp:296)
WARNING: Changed valency_val to valency_boc for H (src/REAXFF/reaxff_ffield.cpp:296)
WARNING: Changed valency_val to valency_boc for O (src/REAXFF/reaxff_ffield.cpp:296)
timestep 0.25
velocity all create 300.0 4928459 rot yes dist gaussian
fix 3 all qeq/reax 1 0.0 10 1e-6 reax/c
variable mye equal etotal
run 1
Last active /omp style is pair_style reax/c/omp
Neighbor list info ...
  update every 1 steps, delay 0 steps, check no
  max neighbors/atom: 2000, page size: 100000
  master list distance cutoff = 12.0001
  ghost atom cutoff = 12.0001
  binsize = 6.00005, bins = 7 7 7
  2 neighbor lists, perpetual/occasional/extra = 2 0 0
  (1) pair reax/c/omp, perpetual
      attributes: half, newton off, ghost, omp
      pair build: half/bin/newtoff/ghost/omp
      stencil: full/ghost/bin/3d
      bin: standard
  (2) fix qeq/reax/omp, perpetual, copy from (1)
      attributes: half, newton off, ghost
      pair build: copy
      stencil: none
      bin: none
Per MPI rank memory allocation (min/avg/max) = 9.011 | 9.011 | 9.011 Mbytes
Step Temp E_pair E_mol TotEng Press 
       0          300   -2767.7038            0   -2747.1362    1416.9182 
       1          300   -2767.7038            0   -2747.1362    1416.9183 
Loop time of 0.0013583 on 1 procs for 1 steps with 24 atoms

Performance: 15.902 ns/day, 1.509 hours/ns, 736.214 timesteps/s
0.0% CPU use with 1 MPI tasks x 1 OpenMP threads

MPI task timing breakdown:
Section |  min time  |  avg time  |  max time  |%varavg| %total
---------------------------------------------------------------
Pair    | 0.000679   | 0.000679   | 0.000679   |   0.0 | 49.99
Bond    | 1e-07      | 1e-07      | 1e-07      |   0.0 |  0.01
Neigh   | 1.67e-05   | 1.67e-05   | 1.67e-05   |   0.0 |  1.23
Comm    | 2e-06      | 2e-06      | 2e-06      |   0.0 |  0.15
Output  | 9.1e-06    | 9.1e-06    | 9.1e-06    |   0.0 |  0.67
Modify  | 0.0006358  | 0.0006358  | 0.0006358  |   0.0 | 46.81
Other   |            | 1.56e-05   |            |       |  1.15

Nlocal:        24.0000 ave          24 max          24 min
Histogram: 1 0 0 0 0 0 0 0 0 0
Nghost:         0.00000 ave           0 max           0 min
Histogram: 1 0 0 0 0 0 0 0 0 0
Neighs:        276.000 ave         276 max         276 min
Histogram: 1 0 0 0 0 0 0 0 0 0

Total # of neighbors = 276
Ave neighs/atom = 11.500000
Ave special neighs/atom = 0.0000000
Neighbor list builds = 1
Dangerous builds not checked
print ${mye} append info1.data screen no
print -2747.13616264089 append info1.data screen no
clear
OMP_NUM_THREADS environment is not set. Defaulting to 1 thread. (src/comm.cpp:98)
  using 1 OpenMP thread(s) per MPI task
package omp 0
using multi-threaded neighbor list subroutines
package omp 1
using multi-threaded neighbor list subroutines
next a
jump input.in
# LG30---original density----0.5------100KPS----1000K----500ps--f4
variable a loop 1 399
units real
atom_style full
neighbor 2.0 bin
neigh_modify every 1 delay 0 check no
read_data data_$a
read_data data_15
Reading data file ...
  orthogonal box = (-20.000000 -20.000000 -20.000000) to (20.000000 20.000000 20.000000)
  1 by 1 by 1 MPI processor grid
  reading atoms ...
  24 atoms
Finding 1-2 1-3 1-4 neighbors ...
  special bond factors lj:    0        0        0       
  special bond factors coul:  0        0        0       
     0 = max # of 1-2 neighbors
     0 = max # of 1-3 neighbors
     0 = max # of 1-4 neighbors
     1 = max # of special neighbors
  special bonds CPU = 0.000 seconds
  read_data CPU = 0.002 seconds
pair_style reax/c NULL
pair_coeff * * ffield.reax.cho C H O
WARNING: Changed valency_val to valency_boc for C (src/REAXFF/reaxff_ffield.cpp:296)
WARNING: Changed valency_val to valency_boc for H (src/REAXFF/reaxff_ffield.cpp:296)
WARNING: Changed valency_val to valency_boc for O (src/REAXFF/reaxff_ffield.cpp:296)
timestep 0.25
velocity all create 300.0 4928459 rot yes dist gaussian
fix 3 all qeq/reax 1 0.0 10 1e-6 reax/c
variable mye equal etotal
run 1
Last active /omp style is pair_style reax/c/omp
Neighbor list info ...
  update every 1 steps, delay 0 steps, check no
  max neighbors/atom: 2000, page size: 100000
  master list distance cutoff = 12.0001
  ghost atom cutoff = 12.0001
  binsize = 6.00005, bins = 7 7 7
  2 neighbor lists, perpetual/occasional/extra = 2 0 0
  (1) pair reax/c/omp, perpetual
      attributes: half, newton off, ghost, omp
      pair build: half/bin/newtoff/ghost/omp
      stencil: full/ghost/bin/3d
      bin: standard
  (2) fix qeq/reax/omp, perpetual, copy from (1)
      attributes: half, newton off, ghost
      pair build: copy
      stencil: none
      bin: none
Per MPI rank memory allocation (min/avg/max) = 9.011 | 9.011 | 9.011 Mbytes
Step Temp E_pair E_mol TotEng Press 
       0          300   -2790.9816            0    -2770.414    1062.2961 
       1          300   -2790.9816            0    -2770.414    1062.2962 
Loop time of 0.0013777 on 1 procs for 1 steps with 24 atoms

Performance: 15.678 ns/day, 1.531 hours/ns, 725.847 timesteps/s
0.0% CPU use with 1 MPI tasks x 1 OpenMP threads

MPI task timing breakdown:
Section |  min time  |  avg time  |  max time  |%varavg| %total
---------------------------------------------------------------
Pair    | 0.00068    | 0.00068    | 0.00068    |   0.0 | 49.36
Bond    | 1e-07      | 1e-07      | 1e-07      |   0.0 |  0.01
Neigh   | 1.66e-05   | 1.66e-05   | 1.66e-05   |   0.0 |  1.20
Comm    | 2e-06      | 2e-06      | 2e-06      |   0.0 |  0.15
Output  | 8.9e-06    | 8.9e-06    | 8.9e-06    |   0.0 |  0.65
Modify  | 0.0006542  | 0.0006542  | 0.0006542  |   0.0 | 47.48
Other   |            | 1.59e-05   |            |       |  1.15

Nlocal:        24.0000 ave          24 max          24 min
Histogram: 1 0 0 0 0 0 0 0 0 0
Nghost:         0.00000 ave           0 max           0 min
Histogram: 1 0 0 0 0 0 0 0 0 0
Neighs:        276.000 ave         276 max         276 min
Histogram: 1 0 0 0 0 0 0 0 0 0

Total # of neighbors = 276
Ave neighs/atom = 11.500000
Ave special neighs/atom = 0.0000000
Neighbor list builds = 1
Dangerous builds not checked
print ${mye} append info1.data screen no
print -2770.41401818972 append info1.data screen no
clear
OMP_NUM_THREADS environment is not set. Defaulting to 1 thread. (src/comm.cpp:98)
  using 1 OpenMP thread(s) per MPI task
package omp 0
using multi-threaded neighbor list subroutines
package omp 1
using multi-threaded neighbor list subroutines
next a
jump input.in
# LG30---original density----0.5------100KPS----1000K----500ps--f4
variable a loop 1 399
units real
atom_style full
neighbor 2.0 bin
neigh_modify every 1 delay 0 check no
read_data data_$a
read_data data_16
Reading data file ...
  orthogonal box = (-20.000000 -20.000000 -20.000000) to (20.000000 20.000000 20.000000)
  1 by 1 by 1 MPI processor grid
  reading atoms ...
  24 atoms
Finding 1-2 1-3 1-4 neighbors ...
  special bond factors lj:    0        0        0       
  special bond factors coul:  0        0        0       
     0 = max # of 1-2 neighbors
     0 = max # of 1-3 neighbors
     0 = max # of 1-4 neighbors
     1 = max # of special neighbors
  special bonds CPU = 0.000 seconds
  read_data CPU = 0.002 seconds
pair_style reax/c NULL
pair_coeff * * ffield.reax.cho C H O
WARNING: Changed valency_val to valency_boc for C (src/REAXFF/reaxff_ffield.cpp:296)
WARNING: Changed valency_val to valency_boc for H (src/REAXFF/reaxff_ffield.cpp:296)
WARNING: Changed valency_val to valency_boc for O (src/REAXFF/reaxff_ffield.cpp:296)
timestep 0.25
velocity all create 300.0 4928459 rot yes dist gaussian
fix 3 all qeq/reax 1 0.0 10 1e-6 reax/c
variable mye equal etotal
run 1
Last active /omp style is pair_style reax/c/omp
Neighbor list info ...
  update every 1 steps, delay 0 steps, check no
  max neighbors/atom: 2000, page size: 100000
  master list distance cutoff = 12.0001
  ghost atom cutoff = 12.0001
  binsize = 6.00005, bins = 7 7 7
  2 neighbor lists, perpetual/occasional/extra = 2 0 0
  (1) pair reax/c/omp, perpetual
      attributes: half, newton off, ghost, omp
      pair build: half/bin/newtoff/ghost/omp
      stencil: full/ghost/bin/3d
      bin: standard
  (2) fix qeq/reax/omp, perpetual, copy from (1)
      attributes: half, newton off, ghost
      pair build: copy
      stencil: none
      bin: none
Per MPI rank memory allocation (min/avg/max) = 9.011 | 9.011 | 9.011 Mbytes
Step Temp E_pair E_mol TotEng Press 
       0          300   -2798.5289            0   -2777.9613    812.60093 
       1          300   -2798.5289            0   -2777.9613    812.60101 
Loop time of 0.0013589 on 1 procs for 1 steps with 24 atoms

Performance: 15.895 ns/day, 1.510 hours/ns, 735.889 timesteps/s
0.0% CPU use with 1 MPI tasks x 1 OpenMP threads

MPI task timing breakdown:
Section |  min time  |  avg time  |  max time  |%varavg| %total
---------------------------------------------------------------
Pair    | 0.0006823  | 0.0006823  | 0.0006823  |   0.0 | 50.21
Bond    | 1e-07      | 1e-07      | 1e-07      |   0.0 |  0.01
Neigh   | 1.67e-05   | 1.67e-05   | 1.67e-05   |   0.0 |  1.23
Comm    | 1.9e-06    | 1.9e-06    | 1.9e-06    |   0.0 |  0.14
Output  | 9.1e-06    | 9.1e-06    | 9.1e-06    |   0.0 |  0.67
Modify  | 0.0006332  | 0.0006332  | 0.0006332  |   0.0 | 46.60
Other   |            | 1.56e-05   |            |       |  1.15

Nlocal:        24.0000 ave          24 max          24 min
Histogram: 1 0 0 0 0 0 0 0 0 0
Nghost:         0.00000 ave           0 max           0 min
Histogram: 1 0 0 0 0 0 0 0 0 0
Neighs:        276.000 ave         276 max         276 min
Histogram: 1 0 0 0 0 0 0 0 0 0

Total # of neighbors = 276
Ave neighs/atom = 11.500000
Ave special neighs/atom = 0.0000000
Neighbor list builds = 1
Dangerous builds not checked
print ${mye} append info1.data screen no
print -2777.96134298013 append info1.data screen no
clear
OMP_NUM_THREADS environment is not set. Defaulting to 1 thread. (src/comm.cpp:98)
  using 1 OpenMP thread(s) per MPI task
package omp 0
using multi-threaded neighbor list subroutines
package omp 1
using multi-threaded neighbor list subroutines
next a
jump input.in
# LG30---original density----0.5------100KPS----1000K----500ps--f4
variable a loop 1 399
units real
atom_style full
neighbor 2.0 bin
neigh_modify every 1 delay 0 check no
read_data data_$a
read_data data_17
Reading data file ...
  orthogonal box = (-20.000000 -20.000000 -20.000000) to (20.000000 20.000000 20.000000)
  1 by 1 by 1 MPI processor grid
  reading atoms ...
  24 atoms
Finding 1-2 1-3 1-4 neighbors ...
  special bond factors lj:    0        0        0       
  special bond factors coul:  0        0        0       
     0 = max # of 1-2 neighbors
     0 = max # of 1-3 neighbors
     0 = max # of 1-4 neighbors
     1 = max # of special neighbors
  special bonds CPU = 0.000 seconds
  read_data CPU = 0.002 seconds
pair_style reax/c NULL
pair_coeff * * ffield.reax.cho C H O
WARNING: Changed valency_val to valency_boc for C (src/REAXFF/reaxff_ffield.cpp:296)
WARNING: Changed valency_val to valency_boc for H (src/REAXFF/reaxff_ffield.cpp:296)
WARNING: Changed valency_val to valency_boc for O (src/REAXFF/reaxff_ffield.cpp:296)
timestep 0.25
velocity all create 300.0 4928459 rot yes dist gaussian
fix 3 all qeq/reax 1 0.0 10 1e-6 reax/c
variable mye equal etotal
run 1
Last active /omp style is pair_style reax/c/omp
Neighbor list info ...
  update every 1 steps, delay 0 steps, check no
  max neighbors/atom: 2000, page size: 100000
  master list distance cutoff = 12.0001
  ghost atom cutoff = 12.0001
  binsize = 6.00005, bins = 7 7 7
  2 neighbor lists, perpetual/occasional/extra = 2 0 0
  (1) pair reax/c/omp, perpetual
      attributes: half, newton off, ghost, omp
      pair build: half/bin/newtoff/ghost/omp
      stencil: full/ghost/bin/3d
      bin: standard
  (2) fix qeq/reax/omp, perpetual, copy from (1)
      attributes: half, newton off, ghost
      pair build: copy
      stencil: none
      bin: none
Per MPI rank memory allocation (min/avg/max) = 9.011 | 9.011 | 9.011 Mbytes
Step Temp E_pair E_mol TotEng Press 
       0          300   -2796.0612            0   -2775.4936    592.79294 
       1          300   -2796.0612            0   -2775.4936    592.79306 
Loop time of 0.0013633 on 1 procs for 1 steps with 24 atoms

Performance: 15.844 ns/day, 1.515 hours/ns, 733.514 timesteps/s
0.0% CPU use with 1 MPI tasks x 1 OpenMP threads

MPI task timing breakdown:
Section |  min time  |  avg time  |  max time  |%varavg| %total
---------------------------------------------------------------
Pair    | 0.0006763  | 0.0006763  | 0.0006763  |   0.0 | 49.61
Bond    | 1e-07      | 1e-07      | 1e-07      |   0.0 |  0.01
Neigh   | 1.69e-05   | 1.69e-05   | 1.69e-05   |   0.0 |  1.24
Comm    | 2e-06      | 2e-06      | 2e-06      |   0.0 |  0.15
Output  | 9.1e-06    | 9.1e-06    | 9.1e-06    |   0.0 |  0.67
Modify  | 0.0006421  | 0.0006421  | 0.0006421  |   0.0 | 47.10
Other   |            | 1.68e-05   |            |       |  1.23

Nlocal:        24.0000 ave          24 max          24 min
Histogram: 1 0 0 0 0 0 0 0 0 0
Nghost:         0.00000 ave           0 max           0 min
Histogram: 1 0 0 0 0 0 0 0 0 0
Neighs:        276.000 ave         276 max         276 min
Histogram: 1 0 0 0 0 0 0 0 0 0

Total # of neighbors = 276
Ave neighs/atom = 11.500000
Ave special neighs/atom = 0.0000000
Neighbor list builds = 1
Dangerous builds not checked
print ${mye} append info1.data screen no
print -2775.49358405822 append info1.data screen no
clear
OMP_NUM_THREADS environment is not set. Defaulting to 1 thread. (src/comm.cpp:98)
  using 1 OpenMP thread(s) per MPI task
package omp 0
using multi-threaded neighbor list subroutines
package omp 1
using multi-threaded neighbor list subroutines
next a
jump input.in
# LG30---original density----0.5------100KPS----1000K----500ps--f4
variable a loop 1 399
units real
atom_style full
neighbor 2.0 bin
neigh_modify every 1 delay 0 check no
read_data data_$a
read_data data_18
Reading data file ...
  orthogonal box = (-20.000000 -20.000000 -20.000000) to (20.000000 20.000000 20.000000)
  1 by 1 by 1 MPI processor grid
  reading atoms ...
  24 atoms
Finding 1-2 1-3 1-4 neighbors ...
  special bond factors lj:    0        0        0       
  special bond factors coul:  0        0        0       
     0 = max # of 1-2 neighbors
     0 = max # of 1-3 neighbors
     0 = max # of 1-4 neighbors
     1 = max # of special neighbors
  special bonds CPU = 0.000 seconds
  read_data CPU = 0.002 seconds
pair_style reax/c NULL
pair_coeff * * ffield.reax.cho C H O
WARNING: Changed valency_val to valency_boc for C (src/REAXFF/reaxff_ffield.cpp:296)
WARNING: Changed valency_val to valency_boc for H (src/REAXFF/reaxff_ffield.cpp:296)
WARNING: Changed valency_val to valency_boc for O (src/REAXFF/reaxff_ffield.cpp:296)
timestep 0.25
velocity all create 300.0 4928459 rot yes dist gaussian
fix 3 all qeq/reax 1 0.0 10 1e-6 reax/c
variable mye equal etotal
run 1
Last active /omp style is pair_style reax/c/omp
Neighbor list info ...
  update every 1 steps, delay 0 steps, check no
  max neighbors/atom: 2000, page size: 100000
  master list distance cutoff = 12.0001
  ghost atom cutoff = 12.0001
  binsize = 6.00005, bins = 7 7 7
  2 neighbor lists, perpetual/occasional/extra = 2 0 0
  (1) pair reax/c/omp, perpetual
      attributes: half, newton off, ghost, omp
      pair build: half/bin/newtoff/ghost/omp
      stencil: full/ghost/bin/3d
      bin: standard
  (2) fix qeq/reax/omp, perpetual, copy from (1)
      attributes: half, newton off, ghost
      pair build: copy
      stencil: none
      bin: none
Per MPI rank memory allocation (min/avg/max) = 9.011 | 9.011 | 9.011 Mbytes
Step Temp E_pair E_mol TotEng Press 
       0          300   -2782.7201            0   -2762.1525    719.43334 
       1          300   -2782.7201            0   -2762.1525    719.43355 
Loop time of 0.0013644 on 1 procs for 1 steps with 24 atoms

Performance: 15.831 ns/day, 1.516 hours/ns, 732.923 timesteps/s
0.0% CPU use with 1 MPI tasks x 1 OpenMP threads

MPI task timing breakdown:
Section |  min time  |  avg time  |  max time  |%varavg| %total
---------------------------------------------------------------
Pair    | 0.0006843  | 0.0006843  | 0.0006843  |   0.0 | 50.15
Bond    | 1e-07      | 1e-07      | 1e-07      |   0.0 |  0.01
Neigh   | 1.72e-05   | 1.72e-05   | 1.72e-05   |   0.0 |  1.26
Comm    | 2e-06      | 2e-06      | 2e-06      |   0.0 |  0.15
Output  | 9.2e-06    | 9.2e-06    | 9.2e-06    |   0.0 |  0.67
Modify  | 0.0006356  | 0.0006356  | 0.0006356  |   0.0 | 46.58
Other   |            | 1.6e-05    |            |       |  1.17

Nlocal:        24.0000 ave          24 max          24 min
Histogram: 1 0 0 0 0 0 0 0 0 0
Nghost:         0.00000 ave           0 max           0 min
Histogram: 1 0 0 0 0 0 0 0 0 0
Neighs:        276.000 ave         276 max         276 min
Histogram: 1 0 0 0 0 0 0 0 0 0

Total # of neighbors = 276
Ave neighs/atom = 11.500000
Ave special neighs/atom = 0.0000000
Neighbor list builds = 1
Dangerous builds not checked
print ${mye} append info1.data screen no
print -2762.15248742416 append info1.data screen no
clear
OMP_NUM_THREADS environment is not set. Defaulting to 1 thread. (src/comm.cpp:98)
  using 1 OpenMP thread(s) per MPI task
package omp 0
using multi-threaded neighbor list subroutines
package omp 1
using multi-threaded neighbor list subroutines
next a
jump input.in
# LG30---original density----0.5------100KPS----1000K----500ps--f4
variable a loop 1 399
units real
atom_style full
neighbor 2.0 bin
neigh_modify every 1 delay 0 check no
read_data data_$a
read_data data_19
Reading data file ...
  orthogonal box = (-20.000000 -20.000000 -20.000000) to (20.000000 20.000000 20.000000)
  1 by 1 by 1 MPI processor grid
  reading atoms ...
  24 atoms
Finding 1-2 1-3 1-4 neighbors ...
  special bond factors lj:    0        0        0       
  special bond factors coul:  0        0        0       
     0 = max # of 1-2 neighbors
     0 = max # of 1-3 neighbors
     0 = max # of 1-4 neighbors
     1 = max # of special neighbors
  special bonds CPU = 0.000 seconds
  read_data CPU = 0.002 seconds
pair_style reax/c NULL
pair_coeff * * ffield.reax.cho C H O
WARNING: Changed valency_val to valency_boc for C (src/REAXFF/reaxff_ffield.cpp:296)
WARNING: Changed valency_val to valency_boc for H (src/REAXFF/reaxff_ffield.cpp:296)
WARNING: Changed valency_val to valency_boc for O (src/REAXFF/reaxff_ffield.cpp:296)
timestep 0.25
velocity all create 300.0 4928459 rot yes dist gaussian
fix 3 all qeq/reax 1 0.0 10 1e-6 reax/c
variable mye equal etotal
run 1
Last active /omp style is pair_style reax/c/omp
Neighbor list info ...
  update every 1 steps, delay 0 steps, check no
  max neighbors/atom: 2000, page size: 100000
  master list distance cutoff = 12.0001
  ghost atom cutoff = 12.0001
  binsize = 6.00005, bins = 7 7 7
  2 neighbor lists, perpetual/occasional/extra = 2 0 0
  (1) pair reax/c/omp, perpetual
      attributes: half, newton off, ghost, omp
      pair build: half/bin/newtoff/ghost/omp
      stencil: full/ghost/bin/3d
      bin: standard
  (2) fix qeq/reax/omp, perpetual, copy from (1)
      attributes: half, newton off, ghost
      pair build: copy
      stencil: none
      bin: none
Per MPI rank memory allocation (min/avg/max) = 9.011 | 9.011 | 9.011 Mbytes
Step Temp E_pair E_mol TotEng Press 
       0          300   -2766.9333            0   -2746.3657    748.74606 
       1          300   -2766.9333            0   -2746.3657    748.74626 
Loop time of 0.0013702 on 1 procs for 1 steps with 24 atoms

Performance: 15.764 ns/day, 1.522 hours/ns, 729.820 timesteps/s
0.0% CPU use with 1 MPI tasks x 1 OpenMP threads

MPI task timing breakdown:
Section |  min time  |  avg time  |  max time  |%varavg| %total
---------------------------------------------------------------
Pair    | 0.0006727  | 0.0006727  | 0.0006727  |   0.0 | 49.10
Bond    | 1e-07      | 1e-07      | 1e-07      |   0.0 |  0.01
Neigh   | 1.84e-05   | 1.84e-05   | 1.84e-05   |   0.0 |  1.34
Comm    | 2.1e-06    | 2.1e-06    | 2.1e-06    |   0.0 |  0.15
Output  | 8.8e-06    | 8.8e-06    | 8.8e-06    |   0.0 |  0.64
Modify  | 0.0006521  | 0.0006521  | 0.0006521  |   0.0 | 47.59
Other   |            | 1.6e-05    |            |       |  1.17

Nlocal:        24.0000 ave          24 max          24 min
Histogram: 1 0 0 0 0 0 0 0 0 0
Nghost:         0.00000 ave           0 max           0 min
Histogram: 1 0 0 0 0 0 0 0 0 0
Neighs:        276.000 ave         276 max         276 min
Histogram: 1 0 0 0 0 0 0 0 0 0

Total # of neighbors = 276
Ave neighs/atom = 11.500000
Ave special neighs/atom = 0.0000000
Neighbor list builds = 1
Dangerous builds not checked
print ${mye} append info1.data screen no
print -2746.36572180239 append info1.data screen no
clear
OMP_NUM_THREADS environment is not set. Defaulting to 1 thread. (src/comm.cpp:98)
  using 1 OpenMP thread(s) per MPI task
package omp 0
using multi-threaded neighbor list subroutines
package omp 1
using multi-threaded neighbor list subroutines
next a
jump input.in
# LG30---original density----0.5------100KPS----1000K----500ps--f4
variable a loop 1 399
units real
atom_style full
neighbor 2.0 bin
neigh_modify every 1 delay 0 check no
read_data data_$a
read_data data_20
Reading data file ...
  orthogonal box = (-20.000000 -20.000000 -20.000000) to (20.000000 20.000000 20.000000)
  1 by 1 by 1 MPI processor grid
  reading atoms ...
  24 atoms
Finding 1-2 1-3 1-4 neighbors ...
  special bond factors lj:    0        0        0       
  special bond factors coul:  0        0        0       
     0 = max # of 1-2 neighbors
     0 = max # of 1-3 neighbors
     0 = max # of 1-4 neighbors
     1 = max # of special neighbors
  special bonds CPU = 0.000 seconds
  read_data CPU = 0.002 seconds
pair_style reax/c NULL
pair_coeff * * ffield.reax.cho C H O
WARNING: Changed valency_val to valency_boc for C (src/REAXFF/reaxff_ffield.cpp:296)
WARNING: Changed valency_val to valency_boc for H (src/REAXFF/reaxff_ffield.cpp:296)
WARNING: Changed valency_val to valency_boc for O (src/REAXFF/reaxff_ffield.cpp:296)
timestep 0.25
velocity all create 300.0 4928459 rot yes dist gaussian
fix 3 all qeq/reax 1 0.0 10 1e-6 reax/c
variable mye equal etotal
run 1
Last active /omp style is pair_style reax/c/omp
Neighbor list info ...
  update every 1 steps, delay 0 steps, check no
  max neighbors/atom: 2000, page size: 100000
  master list distance cutoff = 12.0001
  ghost atom cutoff = 12.0001
  binsize = 6.00005, bins = 7 7 7
  2 neighbor lists, perpetual/occasional/extra = 2 0 0
  (1) pair reax/c/omp, perpetual
      attributes: half, newton off, ghost, omp
      pair build: half/bin/newtoff/ghost/omp
      stencil: full/ghost/bin/3d
      bin: standard
  (2) fix qeq/reax/omp, perpetual, copy from (1)
      attributes: half, newton off, ghost
      pair build: copy
      stencil: none
      bin: none
Per MPI rank memory allocation (min/avg/max) = 9.011 | 9.011 | 9.011 Mbytes
Step Temp E_pair E_mol TotEng Press 
       0          300   -2746.3635            0    -2725.796    729.20921 
       1          300   -2746.3635            0   -2725.7959    729.20945 
Loop time of 0.0013681 on 1 procs for 1 steps with 24 atoms

Performance: 15.788 ns/day, 1.520 hours/ns, 730.941 timesteps/s
0.0% CPU use with 1 MPI tasks x 1 OpenMP threads

MPI task timing breakdown:
Section |  min time  |  avg time  |  max time  |%varavg| %total
---------------------------------------------------------------
Pair    | 0.0006705  | 0.0006705  | 0.0006705  |   0.0 | 49.01
Bond    | 1e-07      | 1e-07      | 1e-07      |   0.0 |  0.01
Neigh   | 1.66e-05   | 1.66e-05   | 1.66e-05   |   0.0 |  1.21
Comm    | 2.1e-06    | 2.1e-06    | 2.1e-06    |   0.0 |  0.15
Output  | 8.9e-06    | 8.9e-06    | 8.9e-06    |   0.0 |  0.65
Modify  | 0.0006543  | 0.0006543  | 0.0006543  |   0.0 | 47.83
Other   |            | 1.56e-05   |            |       |  1.14

Nlocal:        24.0000 ave          24 max          24 min
Histogram: 1 0 0 0 0 0 0 0 0 0
Nghost:         0.00000 ave           0 max           0 min
Histogram: 1 0 0 0 0 0 0 0 0 0
Neighs:        276.000 ave         276 max         276 min
Histogram: 1 0 0 0 0 0 0 0 0 0

Total # of neighbors = 276
Ave neighs/atom = 11.500000
Ave special neighs/atom = 0.0000000
Neighbor list builds = 1
Dangerous builds not checked
print ${mye} append info1.data screen no
print -2725.79594890905 append info1.data screen no
clear
OMP_NUM_THREADS environment is not set. Defaulting to 1 thread. (src/comm.cpp:98)
  using 1 OpenMP thread(s) per MPI task
package omp 0
using multi-threaded neighbor list subroutines
package omp 1
using multi-threaded neighbor list subroutines
next a
jump input.in
# LG30---original density----0.5------100KPS----1000K----500ps--f4
variable a loop 1 399
units real
atom_style full
neighbor 2.0 bin
neigh_modify every 1 delay 0 check no
read_data data_$a
read_data data_21
Reading data file ...
  orthogonal box = (-20.000000 -20.000000 -20.000000) to (20.000000 20.000000 20.000000)
  1 by 1 by 1 MPI processor grid
  reading atoms ...
  24 atoms
Finding 1-2 1-3 1-4 neighbors ...
  special bond factors lj:    0        0        0       
  special bond factors coul:  0        0        0       
     0 = max # of 1-2 neighbors
     0 = max # of 1-3 neighbors
     0 = max # of 1-4 neighbors
     1 = max # of special neighbors
  special bonds CPU = 0.000 seconds
  read_data CPU = 0.002 seconds
pair_style reax/c NULL
pair_coeff * * ffield.reax.cho C H O
WARNING: Changed valency_val to valency_boc for C (src/REAXFF/reaxff_ffield.cpp:296)
WARNING: Changed valency_val to valency_boc for H (src/REAXFF/reaxff_ffield.cpp:296)
WARNING: Changed valency_val to valency_boc for O (src/REAXFF/reaxff_ffield.cpp:296)
timestep 0.25
velocity all create 300.0 4928459 rot yes dist gaussian
fix 3 all qeq/reax 1 0.0 10 1e-6 reax/c
variable mye equal etotal
run 1
Last active /omp style is pair_style reax/c/omp
Neighbor list info ...
  update every 1 steps, delay 0 steps, check no
  max neighbors/atom: 2000, page size: 100000
  master list distance cutoff = 12.0001
  ghost atom cutoff = 12.0001
  binsize = 6.00005, bins = 7 7 7
  2 neighbor lists, perpetual/occasional/extra = 2 0 0
  (1) pair reax/c/omp, perpetual
      attributes: half, newton off, ghost, omp
      pair build: half/bin/newtoff/ghost/omp
      stencil: full/ghost/bin/3d
      bin: standard
  (2) fix qeq/reax/omp, perpetual, copy from (1)
      attributes: half, newton off, ghost
      pair build: copy
      stencil: none
      bin: none
Per MPI rank memory allocation (min/avg/max) = 9.011 | 9.011 | 9.011 Mbytes
Step Temp E_pair E_mol TotEng Press 
       0          300   -2720.2392            0   -2699.6717    701.23301 
       1          300   -2720.2392            0   -2699.6717    701.23318 
Loop time of 0.0014477 on 1 procs for 1 steps with 24 atoms

Performance: 14.920 ns/day, 1.609 hours/ns, 690.751 timesteps/s
0.0% CPU use with 1 MPI tasks x 1 OpenMP threads

MPI task timing breakdown:
Section |  min time  |  avg time  |  max time  |%varavg| %total
---------------------------------------------------------------
Pair    | 0.0007016  | 0.0007016  | 0.0007016  |   0.0 | 48.46
Bond    | 1e-07      | 1e-07      | 1e-07      |   0.0 |  0.01
Neigh   | 1.66e-05   | 1.66e-05   | 1.66e-05   |   0.0 |  1.15
Comm    | 1.9e-06    | 1.9e-06    | 1.9e-06    |   0.0 |  0.13
Output  | 9.3e-06    | 9.3e-06    | 9.3e-06    |   0.0 |  0.64
Modify  | 0.0007024  | 0.0007024  | 0.0007024  |   0.0 | 48.52
Other   |            | 1.58e-05   |            |       |  1.09

Nlocal:        24.0000 ave          24 max          24 min
Histogram: 1 0 0 0 0 0 0 0 0 0
Nghost:         0.00000 ave           0 max           0 min
Histogram: 1 0 0 0 0 0 0 0 0 0
Neighs:        276.000 ave         276 max         276 min
Histogram: 1 0 0 0 0 0 0 0 0 0

Total # of neighbors = 276
Ave neighs/atom = 11.500000
Ave special neighs/atom = 0.0000000
Neighbor list builds = 1
Dangerous builds not checked
print ${mye} append info1.data screen no
print -2699.6716588782 append info1.data screen no
clear
OMP_NUM_THREADS environment is not set. Defaulting to 1 thread. (src/comm.cpp:98)
  using 1 OpenMP thread(s) per MPI task
package omp 0
using multi-threaded neighbor list subroutines
package omp 1
using multi-threaded neighbor list subroutines
next a
jump input.in
# LG30---original density----0.5------100KPS----1000K----500ps--f4
variable a loop 1 399
units real
atom_style full
neighbor 2.0 bin
neigh_modify every 1 delay 0 check no
read_data data_$a
read_data data_22
Reading data file ...
  orthogonal box = (-20.000000 -20.000000 -20.000000) to (20.000000 20.000000 20.000000)
  1 by 1 by 1 MPI processor grid
  reading atoms ...
  21 atoms
Finding 1-2 1-3 1-4 neighbors ...
  special bond factors lj:    0        0        0       
  special bond factors coul:  0        0        0       
     0 = max # of 1-2 neighbors
     0 = max # of 1-3 neighbors
     0 = max # of 1-4 neighbors
     1 = max # of special neighbors
  special bonds CPU = 0.000 seconds
  read_data CPU = 0.002 seconds
pair_style reax/c NULL
pair_coeff * * ffield.reax.cho C H O
WARNING: Changed valency_val to valency_boc for C (src/REAXFF/reaxff_ffield.cpp:296)
WARNING: Changed valency_val to valency_boc for H (src/REAXFF/reaxff_ffield.cpp:296)
WARNING: Changed valency_val to valency_boc for O (src/REAXFF/reaxff_ffield.cpp:296)
timestep 0.25
velocity all create 300.0 4928459 rot yes dist gaussian
fix 3 all qeq/reax 1 0.0 10 1e-6 reax/c
variable mye equal etotal
run 1
Last active /omp style is pair_style reax/c/omp
Neighbor list info ...
  update every 1 steps, delay 0 steps, check no
  max neighbors/atom: 2000, page size: 100000
  master list distance cutoff = 12.0001
  ghost atom cutoff = 12.0001
  binsize = 6.00005, bins = 7 7 7
  2 neighbor lists, perpetual/occasional/extra = 2 0 0
  (1) pair reax/c/omp, perpetual
      attributes: half, newton off, ghost, omp
      pair build: half/bin/newtoff/ghost/omp
      stencil: full/ghost/bin/3d
      bin: standard
  (2) fix qeq/reax/omp, perpetual, copy from (1)
      attributes: half, newton off, ghost
      pair build: copy
      stencil: none
      bin: none
Per MPI rank memory allocation (min/avg/max) = 9.011 | 9.011 | 9.011 Mbytes
Step Temp E_pair E_mol TotEng Press 
       0          300     -1482.56            0   -1464.6752    2586.9692 
       1          300     -1482.56            0   -1464.6752    2586.9693 
[...]
  max neighbors/atom: 2000, page size: 100000
  master list distance cutoff = 12.0001
  ghost atom cutoff = 12.0001
  binsize = 6.00005, bins = 7 7 7
  2 neighbor lists, perpetual/occasional/extra = 2 0 0
  (1) pair reax/c/omp, perpetual
      attributes: half, newton off, ghost, omp
      pair build: half/bin/newtoff/ghost/omp
      stencil: full/ghost/bin/3d
      bin: standard
  (2) fix qeq/reax/omp, perpetual, copy from (1)
      attributes: half, newton off, ghost
      pair build: copy
      stencil: none
      bin: none
Per MPI rank memory allocation (min/avg/max) = 9.011 | 9.011 | 9.011 Mbytes
Step Temp E_pair E_mol TotEng Press 
WARNING: Too many warnings: 1182 vs 100. All future warnings will be suppressed (src/thermo.cpp:422)
       0          300   -233.20376            0   -229.62679    65.108945 
       1          300   -233.20376            0   -229.62679    65.108945 
Loop time of 0.0004273 on 1 procs for 1 steps with 5 atoms

Performance: 50.550 ns/day, 0.475 hours/ns, 2340.276 timesteps/s
0.0% CPU use with 1 MPI tasks x 1 OpenMP threads

MPI task timing breakdown:
Section |  min time  |  avg time  |  max time  |%varavg| %total
---------------------------------------------------------------
Pair    | 0.0001709  | 0.0001709  | 0.0001709  |   0.0 | 40.00
Bond    | 1e-07      | 1e-07      | 1e-07      |   0.0 |  0.02
Neigh   | 1.06e-05   | 1.06e-05   | 1.06e-05   |   0.0 |  2.48
Comm    | 1.6e-06    | 1.6e-06    | 1.6e-06    |   0.0 |  0.37
Output  | 8.8e-06    | 8.8e-06    | 8.8e-06    |   0.0 |  2.06
Modify  | 0.0002176  | 0.0002176  | 0.0002176  |   0.0 | 50.92
Other   |            | 1.77e-05   |            |       |  4.14

Nlocal:        5.00000 ave           5 max           5 min
Histogram: 1 0 0 0 0 0 0 0 0 0
Nghost:         0.00000 ave           0 max           0 min
Histogram: 1 0 0 0 0 0 0 0 0 0
Neighs:        10.0000 ave          10 max          10 min
Histogram: 1 0 0 0 0 0 0 0 0 0

Total # of neighbors = 10
Ave neighs/atom = 2.0000000
Ave special neighs/atom = 0.0000000
Neighbor list builds = 1
Dangerous builds not checked
print ${mye} append info1.data screen no
print -229.626792535907 append info1.data screen no
clear
OMP_NUM_THREADS environment is not set. Defaulting to 1 thread. (src/comm.cpp:98)
  using 1 OpenMP thread(s) per MPI task
package omp 0
using multi-threaded neighbor list subroutines
package omp 1
using multi-threaded neighbor list subroutines
next a
jump input.in
# LG30---original density----0.5------100KPS----1000K----500ps--f4
variable a loop 1 399
units real
atom_style full
neighbor 2.0 bin
neigh_modify every 1 delay 0 check no
read_data data_$a
read_data data_395
Reading data file ...
  orthogonal box = (-20.000000 -20.000000 -20.000000) to (20.000000 20.000000 20.000000)
  1 by 1 by 1 MPI processor grid
  reading atoms ...
  5 atoms
Finding 1-2 1-3 1-4 neighbors ...
  special bond factors lj:    0        0        0       
  special bond factors coul:  0        0        0       
     0 = max # of 1-2 neighbors
     0 = max # of 1-3 neighbors
     0 = max # of 1-4 neighbors
     1 = max # of special neighbors
  special bonds CPU = 0.000 seconds
  read_data CPU = 0.001 seconds
pair_style reax/c NULL
pair_coeff * * ffield.reax.cho C H O
timestep 0.25
velocity all create 300.0 4928459 rot yes dist gaussian
fix 3 all qeq/reax 1 0.0 10 1e-6 reax/c
variable mye equal etotal
run 1
Last active /omp style is pair_style reax/c/omp
Neighbor list info ...
  update every 1 steps, delay 0 steps, check no
  max neighbors/atom: 2000, page size: 100000
  master list distance cutoff = 12.0001
  ghost atom cutoff = 12.0001
  binsize = 6.00005, bins = 7 7 7
  2 neighbor lists, perpetual/occasional/extra = 2 0 0
  (1) pair reax/c/omp, perpetual
      attributes: half, newton off, ghost, omp
      pair build: half/bin/newtoff/ghost/omp
      stencil: full/ghost/bin/3d
      bin: standard
  (2) fix qeq/reax/omp, perpetual, copy from (1)
      attributes: half, newton off, ghost
      pair build: copy
      stencil: none
      bin: none
Per MPI rank memory allocation (min/avg/max) = 9.011 | 9.011 | 9.011 Mbytes
Step Temp E_pair E_mol TotEng Press 
WARNING: Too many warnings: 1185 vs 100. All future warnings will be suppressed (src/thermo.cpp:422)
       0          300   -228.87253            0   -225.29556    89.997704 
       1          300   -228.87253            0   -225.29556    89.997704 
Loop time of 0.0004293 on 1 procs for 1 steps with 5 atoms

Performance: 50.314 ns/day, 0.477 hours/ns, 2329.373 timesteps/s
3639.6% CPU use with 1 MPI tasks x 1 OpenMP threads

MPI task timing breakdown:
Section |  min time  |  avg time  |  max time  |%varavg| %total
---------------------------------------------------------------
Pair    | 0.0001707  | 0.0001707  | 0.0001707  |   0.0 | 39.76
Bond    | 2e-07      | 2e-07      | 2e-07      |   0.0 |  0.05
Neigh   | 1.29e-05   | 1.29e-05   | 1.29e-05   |   0.0 |  3.00
Comm    | 1.4e-06    | 1.4e-06    | 1.4e-06    |   0.0 |  0.33
Output  | 8.8e-06    | 8.8e-06    | 8.8e-06    |   0.0 |  2.05
Modify  | 0.0002174  | 0.0002174  | 0.0002174  |   0.0 | 50.64
Other   |            | 1.79e-05   |            |       |  4.17

Nlocal:        5.00000 ave           5 max           5 min
Histogram: 1 0 0 0 0 0 0 0 0 0
Nghost:         0.00000 ave           0 max           0 min
Histogram: 1 0 0 0 0 0 0 0 0 0
Neighs:        10.0000 ave          10 max          10 min
Histogram: 1 0 0 0 0 0 0 0 0 0

Total # of neighbors = 10
Ave neighs/atom = 2.0000000
Ave special neighs/atom = 0.0000000
Neighbor list builds = 1
Dangerous builds not checked
print ${mye} append info1.data screen no
print -225.295556526381 append info1.data screen no
clear
OMP_NUM_THREADS environment is not set. Defaulting to 1 thread. (src/comm.cpp:98)
  using 1 OpenMP thread(s) per MPI task
package omp 0
using multi-threaded neighbor list subroutines
package omp 1
using multi-threaded neighbor list subroutines
next a
jump input.in
# LG30---original density----0.5------100KPS----1000K----500ps--f4
variable a loop 1 399
units real
atom_style full
neighbor 2.0 bin
neigh_modify every 1 delay 0 check no
read_data data_$a
read_data data_396
Reading data file ...
  orthogonal box = (-20.000000 -20.000000 -20.000000) to (20.000000 20.000000 20.000000)
  1 by 1 by 1 MPI processor grid
  reading atoms ...
  5 atoms
Finding 1-2 1-3 1-4 neighbors ...
  special bond factors lj:    0        0        0       
  special bond factors coul:  0        0        0       
     0 = max # of 1-2 neighbors
     0 = max # of 1-3 neighbors
     0 = max # of 1-4 neighbors
     1 = max # of special neighbors
  special bonds CPU = 0.000 seconds
  read_data CPU = 0.001 seconds
pair_style reax/c NULL
pair_coeff * * ffield.reax.cho C H O
timestep 0.25
velocity all create 300.0 4928459 rot yes dist gaussian
fix 3 all qeq/reax 1 0.0 10 1e-6 reax/c
variable mye equal etotal
run 1
Last active /omp style is pair_style reax/c/omp
Neighbor list info ...
  update every 1 steps, delay 0 steps, check no
  max neighbors/atom: 2000, page size: 100000
  master list distance cutoff = 12.0001
  ghost atom cutoff = 12.0001
  binsize = 6.00005, bins = 7 7 7
  2 neighbor lists, perpetual/occasional/extra = 2 0 0
  (1) pair reax/c/omp, perpetual
      attributes: half, newton off, ghost, omp
      pair build: half/bin/newtoff/ghost/omp
      stencil: full/ghost/bin/3d
      bin: standard
  (2) fix qeq/reax/omp, perpetual, copy from (1)
      attributes: half, newton off, ghost
      pair build: copy
      stencil: none
      bin: none
Per MPI rank memory allocation (min/avg/max) = 9.011 | 9.011 | 9.011 Mbytes
Step Temp E_pair E_mol TotEng Press 
WARNING: Too many warnings: 1188 vs 100. All future warnings will be suppressed (src/thermo.cpp:422)
       0          300   -227.47111            0   -223.89414    106.10018 
       1          300   -227.47111            0   -223.89414    106.10018 
Loop time of 0.0004033 on 1 procs for 1 steps with 5 atoms

Performance: 53.558 ns/day, 0.448 hours/ns, 2479.543 timesteps/s
0.0% CPU use with 1 MPI tasks x 1 OpenMP threads

MPI task timing breakdown:
Section |  min time  |  avg time  |  max time  |%varavg| %total
---------------------------------------------------------------
Pair    | 0.0001482  | 0.0001482  | 0.0001482  |   0.0 | 36.75
Bond    | 1e-07      | 1e-07      | 1e-07      |   0.0 |  0.02
Neigh   | 1.05e-05   | 1.05e-05   | 1.05e-05   |   0.0 |  2.60
Comm    | 1.7e-06    | 1.7e-06    | 1.7e-06    |   0.0 |  0.42
Output  | 7.6e-06    | 7.6e-06    | 7.6e-06    |   0.0 |  1.88
Modify  | 0.0002176  | 0.0002176  | 0.0002176  |   0.0 | 53.95
Other   |            | 1.76e-05   |            |       |  4.36

Nlocal:        5.00000 ave           5 max           5 min
Histogram: 1 0 0 0 0 0 0 0 0 0
Nghost:         0.00000 ave           0 max           0 min
Histogram: 1 0 0 0 0 0 0 0 0 0
Neighs:        10.0000 ave          10 max          10 min
Histogram: 1 0 0 0 0 0 0 0 0 0

Total # of neighbors = 10
Ave neighs/atom = 2.0000000
Ave special neighs/atom = 0.0000000
Neighbor list builds = 1
Dangerous builds not checked
print ${mye} append info1.data screen no
print -223.894140817861 append info1.data screen no
clear
OMP_NUM_THREADS environment is not set. Defaulting to 1 thread. (src/comm.cpp:98)
  using 1 OpenMP thread(s) per MPI task
package omp 0
using multi-threaded neighbor list subroutines
package omp 1
using multi-threaded neighbor list subroutines
next a
jump input.in
# LG30---original density----0.5------100KPS----1000K----500ps--f4
variable a loop 1 399
units real
atom_style full
neighbor 2.0 bin
neigh_modify every 1 delay 0 check no
read_data data_$a
read_data data_397
Reading data file ...
  orthogonal box = (-20.000000 -20.000000 -20.000000) to (20.000000 20.000000 20.000000)
  1 by 1 by 1 MPI processor grid
  reading atoms ...
  5 atoms
Finding 1-2 1-3 1-4 neighbors ...
  special bond factors lj:    0        0        0       
  special bond factors coul:  0        0        0       
     0 = max # of 1-2 neighbors
     0 = max # of 1-3 neighbors
     0 = max # of 1-4 neighbors
     1 = max # of special neighbors
  special bonds CPU = 0.000 seconds
  read_data CPU = 0.001 seconds
pair_style reax/c NULL
pair_coeff * * ffield.reax.cho C H O
timestep 0.25
velocity all create 300.0 4928459 rot yes dist gaussian
fix 3 all qeq/reax 1 0.0 10 1e-6 reax/c
variable mye equal etotal
run 1
Last active /omp style is pair_style reax/c/omp
Neighbor list info ...
  update every 1 steps, delay 0 steps, check no
  max neighbors/atom: 2000, page size: 100000
  master list distance cutoff = 12.0001
  ghost atom cutoff = 12.0001
  binsize = 6.00005, bins = 7 7 7
  2 neighbor lists, perpetual/occasional/extra = 2 0 0
  (1) pair reax/c/omp, perpetual
      attributes: half, newton off, ghost, omp
      pair build: half/bin/newtoff/ghost/omp
      stencil: full/ghost/bin/3d
      bin: standard
  (2) fix qeq/reax/omp, perpetual, copy from (1)
      attributes: half, newton off, ghost
      pair build: copy
      stencil: none
      bin: none
Per MPI rank memory allocation (min/avg/max) = 9.011 | 9.011 | 9.011 Mbytes
Step Temp E_pair E_mol TotEng Press 
WARNING: Too many warnings: 1191 vs 100. All future warnings will be suppressed (src/thermo.cpp:422)
       0          300   -227.47557            0    -223.8986     112.1144 
       1          300   -227.47557            0    -223.8986     112.1144 
Loop time of 0.0003757 on 1 procs for 1 steps with 5 atoms

Performance: 57.493 ns/day, 0.417 hours/ns, 2661.698 timesteps/s
0.0% CPU use with 1 MPI tasks x 1 OpenMP threads

MPI task timing breakdown:
Section |  min time  |  avg time  |  max time  |%varavg| %total
---------------------------------------------------------------
Pair    | 0.0001461  | 0.0001461  | 0.0001461  |   0.0 | 38.89
Bond    | 1e-07      | 1e-07      | 1e-07      |   0.0 |  0.03
Neigh   | 9.8e-06    | 9.8e-06    | 9.8e-06    |   0.0 |  2.61
Comm    | 1.4e-06    | 1.4e-06    | 1.4e-06    |   0.0 |  0.37
Output  | 8.2e-06    | 8.2e-06    | 8.2e-06    |   0.0 |  2.18
Modify  | 0.0001942  | 0.0001942  | 0.0001942  |   0.0 | 51.69
Other   |            | 1.59e-05   |            |       |  4.23

Nlocal:        5.00000 ave           5 max           5 min
Histogram: 1 0 0 0 0 0 0 0 0 0
Nghost:         0.00000 ave           0 max           0 min
Histogram: 1 0 0 0 0 0 0 0 0 0
Neighs:        10.0000 ave          10 max          10 min
Histogram: 1 0 0 0 0 0 0 0 0 0

Total # of neighbors = 10
Ave neighs/atom = 2.0000000
Ave special neighs/atom = 0.0000000
Neighbor list builds = 1
Dangerous builds not checked
print ${mye} append info1.data screen no
print -223.898598681112 append info1.data screen no
clear
OMP_NUM_THREADS environment is not set. Defaulting to 1 thread. (src/comm.cpp:98)
  using 1 OpenMP thread(s) per MPI task
package omp 0
using multi-threaded neighbor list subroutines
package omp 1
using multi-threaded neighbor list subroutines
next a
jump input.in
# LG30---original density----0.5------100KPS----1000K----500ps--f4
variable a loop 1 399
units real
atom_style full
neighbor 2.0 bin
neigh_modify every 1 delay 0 check no
read_data data_$a
read_data data_398
Reading data file ...
  orthogonal box = (-20.000000 -20.000000 -20.000000) to (20.000000 20.000000 20.000000)
  1 by 1 by 1 MPI processor grid
  reading atoms ...
  5 atoms
Finding 1-2 1-3 1-4 neighbors ...
  special bond factors lj:    0        0        0       
  special bond factors coul:  0        0        0       
     0 = max # of 1-2 neighbors
     0 = max # of 1-3 neighbors
     0 = max # of 1-4 neighbors
     1 = max # of special neighbors
  special bonds CPU = 0.000 seconds
  read_data CPU = 0.001 seconds
pair_style reax/c NULL
pair_coeff * * ffield.reax.cho C H O
timestep 0.25
velocity all create 300.0 4928459 rot yes dist gaussian
fix 3 all qeq/reax 1 0.0 10 1e-6 reax/c
variable mye equal etotal
run 1
Last active /omp style is pair_style reax/c/omp
Neighbor list info ...
  update every 1 steps, delay 0 steps, check no
  max neighbors/atom: 2000, page size: 100000
  master list distance cutoff = 12.0001
  ghost atom cutoff = 12.0001
  binsize = 6.00005, bins = 7 7 7
  2 neighbor lists, perpetual/occasional/extra = 2 0 0
  (1) pair reax/c/omp, perpetual
      attributes: half, newton off, ghost, omp
      pair build: half/bin/newtoff/ghost/omp
      stencil: full/ghost/bin/3d
      bin: standard
  (2) fix qeq/reax/omp, perpetual, copy from (1)
      attributes: half, newton off, ghost
      pair build: copy
      stencil: none
      bin: none
Per MPI rank memory allocation (min/avg/max) = 9.011 | 9.011 | 9.011 Mbytes
Step Temp E_pair E_mol TotEng Press 
WARNING: Too many warnings: 1194 vs 100. All future warnings will be suppressed (src/thermo.cpp:422)
       0          300   -227.94024            0   -224.36327    113.10624 
       1          300   -227.94024            0   -224.36327    113.10624 
Loop time of 0.000367 on 1 procs for 1 steps with 5 atoms

Performance: 58.856 ns/day, 0.408 hours/ns, 2724.796 timesteps/s
0.0% CPU use with 1 MPI tasks x 1 OpenMP threads

MPI task timing breakdown:
Section |  min time  |  avg time  |  max time  |%varavg| %total
---------------------------------------------------------------
Pair    | 0.0001434  | 0.0001434  | 0.0001434  |   0.0 | 39.07
Bond    | 2e-07      | 2e-07      | 2e-07      |   0.0 |  0.05
Neigh   | 9.6e-06    | 9.6e-06    | 9.6e-06    |   0.0 |  2.62
Comm    | 1.4e-06    | 1.4e-06    | 1.4e-06    |   0.0 |  0.38
Output  | 7.8e-06    | 7.8e-06    | 7.8e-06    |   0.0 |  2.13
Modify  | 0.000189   | 0.000189   | 0.000189   |   0.0 | 51.50
Other   |            | 1.56e-05   |            |       |  4.25

Nlocal:        5.00000 ave           5 max           5 min
Histogram: 1 0 0 0 0 0 0 0 0 0
Nghost:         0.00000 ave           0 max           0 min
Histogram: 1 0 0 0 0 0 0 0 0 0
Neighs:        10.0000 ave          10 max          10 min
Histogram: 1 0 0 0 0 0 0 0 0 0

Total # of neighbors = 10
Ave neighs/atom = 2.0000000
Ave special neighs/atom = 0.0000000
Neighbor list builds = 1
Dangerous builds not checked
print ${mye} append info1.data screen no
print -224.363272460222 append info1.data screen no
clear
OMP_NUM_THREADS environment is not set. Defaulting to 1 thread. (src/comm.cpp:98)
  using 1 OpenMP thread(s) per MPI task
package omp 0
using multi-threaded neighbor list subroutines
package omp 1
using multi-threaded neighbor list subroutines
next a
jump input.in
# LG30---original density----0.5------100KPS----1000K----500ps--f4
variable a loop 1 399
units real
atom_style full
neighbor 2.0 bin
neigh_modify every 1 delay 0 check no
read_data data_$a
read_data data_399
Reading data file ...
  orthogonal box = (-20.000000 -20.000000 -20.000000) to (20.000000 20.000000 20.000000)
  1 by 1 by 1 MPI processor grid
  reading atoms ...
  5 atoms
Finding 1-2 1-3 1-4 neighbors ...
  special bond factors lj:    0        0        0       
  special bond factors coul:  0        0        0       
     0 = max # of 1-2 neighbors
     0 = max # of 1-3 neighbors
     0 = max # of 1-4 neighbors
     1 = max # of special neighbors
  special bonds CPU = 0.000 seconds
  read_data CPU = 0.001 seconds
pair_style reax/c NULL
pair_coeff * * ffield.reax.cho C H O
timestep 0.25
velocity all create 300.0 4928459 rot yes dist gaussian
fix 3 all qeq/reax 1 0.0 10 1e-6 reax/c
variable mye equal etotal
run 1
Last active /omp style is pair_style reax/c/omp
Neighbor list info ...
  update every 1 steps, delay 0 steps, check no
  max neighbors/atom: 2000, page size: 100000
  master list distance cutoff = 12.0001
  ghost atom cutoff = 12.0001
  binsize = 6.00005, bins = 7 7 7
  2 neighbor lists, perpetual/occasional/extra = 2 0 0
  (1) pair reax/c/omp, perpetual
      attributes: half, newton off, ghost, omp
      pair build: half/bin/newtoff/ghost/omp
      stencil: full/ghost/bin/3d
      bin: standard
  (2) fix qeq/reax/omp, perpetual, copy from (1)
      attributes: half, newton off, ghost
      pair build: copy
      stencil: none
      bin: none
Per MPI rank memory allocation (min/avg/max) = 9.011 | 9.011 | 9.011 Mbytes
Step Temp E_pair E_mol TotEng Press 
WARNING: Too many warnings: 1197 vs 100. All future warnings will be suppressed (src/thermo.cpp:422)
       0          300   -228.27488            0   -224.69791    112.14387 
       1          300   -228.27488            0   -224.69791    112.14387 
Loop time of 0.0003699 on 1 procs for 1 steps with 5 atoms

Performance: 58.394 ns/day, 0.411 hours/ns, 2703.433 timesteps/s
0.0% CPU use with 1 MPI tasks x 1 OpenMP threads

MPI task timing breakdown:
Section |  min time  |  avg time  |  max time  |%varavg| %total
---------------------------------------------------------------
Pair    | 0.0001432  | 0.0001432  | 0.0001432  |   0.0 | 38.71
Bond    | 1e-07      | 1e-07      | 1e-07      |   0.0 |  0.03
Neigh   | 9.5e-06    | 9.5e-06    | 9.5e-06    |   0.0 |  2.57
Comm    | 1.4e-06    | 1.4e-06    | 1.4e-06    |   0.0 |  0.38
Output  | 8.1e-06    | 8.1e-06    | 8.1e-06    |   0.0 |  2.19
Modify  | 0.0001914  | 0.0001914  | 0.0001914  |   0.0 | 51.74
Other   |            | 1.62e-05   |            |       |  4.38

Nlocal:        5.00000 ave           5 max           5 min
Histogram: 1 0 0 0 0 0 0 0 0 0
Nghost:         0.00000 ave           0 max           0 min
Histogram: 1 0 0 0 0 0 0 0 0 0
Neighs:        10.0000 ave          10 max          10 min
Histogram: 1 0 0 0 0 0 0 0 0 0

Total # of neighbors = 10
Ave neighs/atom = 2.0000000
Ave special neighs/atom = 0.0000000
Neighbor list builds = 1
Dangerous builds not checked
print ${mye} append info1.data screen no
print -224.697910076403 append info1.data screen no
clear
OMP_NUM_THREADS environment is not set. Defaulting to 1 thread. (src/comm.cpp:98)
  using 1 OpenMP thread(s) per MPI task
package omp 0
using multi-threaded neighbor list subroutines
package omp 1
using multi-threaded neighbor list subroutines
next a
jump input.in
Total wall time: 0:00:39
