 Entering Link 1 = I:\G16W\l1.exe PID=      8280.
  
 Copyright (c) 1988,1990,1992,1993,1995,1998,2003,2009,2016,
            Gaussian, Inc.  All Rights Reserved.
  
 This is part of the Gaussian(R) 16 program.  It is based on
 the Gaussian(R) 09 system (copyright 2009, Gaussian, Inc.),
 the Gaussian(R) 03 system (copyright 2003, Gaussian, Inc.),
 the Gaussian(R) 98 system (copyright 1998, Gaussian, Inc.),
 the Gaussian(R) 94 system (copyright 1995, Gaussian, Inc.),
 the Gaussian 92(TM) system (copyright 1992, Gaussian, Inc.),
 the Gaussian 90(TM) system (copyright 1990, Gaussian, Inc.),
 the Gaussian 88(TM) system (copyright 1988, Gaussian, Inc.),
 the Gaussian 86(TM) system (copyright 1986, Carnegie Mellon
 University), and the Gaussian 82(TM) system (copyright 1983,
 Carnegie Mellon University). Gaussian is a federally registered
 trademark of Gaussian, Inc.
  
 This software contains proprietary and confidential information,
 including trade secrets, belonging to Gaussian, Inc.
  
 This software is provided under written license and may be
 used, copied, transmitted, or stored only in accord with that
 written license.
  
 The following legend is applicable only to US Government
 contracts under FAR:
  
                    RESTRICTED RIGHTS LEGEND
  
 Use, reproduction and disclosure by the US Government is
 subject to restrictions as set forth in subparagraphs (a)
 and (c) of the Commercial Computer Software - Restricted
 Rights clause in FAR 52.227-19.
  
 Gaussian, Inc.
 340 Quinnipiac St., Bldg. 40, Wallingford CT 06492
  
  
 ---------------------------------------------------------------
 Warning -- This program may not be used in any manner that
 competes with the business of Gaussian, Inc. or will provide
 assistance to any competitor of Gaussian, Inc.  The licensee
 of this program is prohibited from giving any competitor of
 Gaussian, Inc. access to this program.  By using this program,
 the user acknowledges that Gaussian, Inc. is engaged in the
 business of creating and licensing software in the field of
 computational chemistry and represents and warrants to the
 licensee that it is not a competitor of Gaussian, Inc. and that
 it will not use this program in any manner prohibited above.
 ---------------------------------------------------------------
  

 Cite this work as:
 Gaussian 16, Revision A.03,
 M. J. Frisch, G. W. Trucks, H. B. Schlegel, G. E. Scuseria, 
 M. A. Robb, J. R. Cheeseman, G. Scalmani, V. Barone, 
 G. A. Petersson, H. Nakatsuji, X. Li, M. Caricato, A. V. Marenich, 
 J. Bloino, B. G. Janesko, R. Gomperts, B. Mennucci, H. P. Hratchian, 
 J. V. Ortiz, A. F. Izmaylov, J. L. Sonnenberg, D. Williams-Young, 
 F. Ding, F. Lipparini, F. Egidi, J. Goings, B. Peng, A. Petrone, 
 T. Henderson, D. Ranasinghe, V. G. Zakrzewski, J. Gao, N. Rega, 
 G. Zheng, W. Liang, M. Hada, M. Ehara, K. Toyota, R. Fukuda, 
 J. Hasegawa, M. Ishida, T. Nakajima, Y. Honda, O. Kitao, H. Nakai, 
 T. Vreven, K. Throssell, J. A. Montgomery, Jr., J. E. Peralta, 
 F. Ogliaro, M. J. Bearpark, J. J. Heyd, E. N. Brothers, K. N. Kudin, 
 V. N. Staroverov, T. A. Keith, R. Kobayashi, J. Normand, 
 K. Raghavachari, A. P. Rendell, J. C. Burant, S. S. Iyengar, 
 J. Tomasi, M. Cossi, J. M. Millam, M. Klene, C. Adamo, R. Cammi, 
 J. W. Ochterski, R. L. Martin, K. Morokuma, O. Farkas, 
 J. B. Foresman, and D. J. Fox, Gaussian, Inc., Wallingford CT, 2016.
 
 ******************************************
 Gaussian 16:  EM64W-G16RevA.03 17-Dec-2016
                24-Mar-2023 
 ******************************************
 %nprocshared=32
 Will use up to   32 processors via shared memory.
 %mem=600MW
 %chk=C:\Users\Administrator\Desktop\dataset_dft\C12H8O1\C12H8O1.chk
 --------------------------------
 # scan b3lyp/6-31++g(d,p) nosymm
 --------------------------------
 1/38=1,60=1,172=1/1,8;
 2/12=2,15=1,17=6,18=5,29=3,40=1/2;
 3/5=1,6=6,7=1111,11=2,25=1,30=1,74=-5/1,2,3;
 4//1;
 5/5=2,38=5/2;
 6/7=2,8=2,9=2,10=2,18=1,28=1/1;
 1/60=1/8(1);
 99/9=1/99;
 2/15=1,29=3/2;
 3/5=1,6=6,7=1111,11=2,25=1,30=1,74=-5/1,2,3;
 4/5=5,16=3,69=1/1;
 5/5=2,38=5/2;
 1/60=1/8(-4);
 99/9=1/99;
 -------------------
 Title Card Required
 -------------------
 Symbolic Z-matrix:
 Charge =  0 Multiplicity = 1
 C(PDBName=C,ResName=MOL,ResNum=1)
 C(PDBName=C,ResName=MOL,ResNum=1) 1    B1
 C(PDBName=C,ResName=MOL,ResNum=1) 2    B2       1    A1
 C(PDBName=C,ResName=MOL,ResNum=1) 3    B3       2    A2       1    D1       0
 C(PDBName=C,ResName=MOL,ResNum=1) 4    B4       3    A3       2    D2       0
 C(PDBName=C,ResName=MOL,ResNum=1) 5    B5       4    A4       3    D3       0
 H(PDBName=H,ResName=MOL,ResNum=1) 2    B6       1    A5       6    D4       0
 C(PDBName=C,ResName=MOL,ResNum=1) 4    B7       3    A6       2    D5       0
 C(PDBName=C,ResName=MOL,ResNum=1) 8    B8       4    A7       3    D6       0
 C(PDBName=C,ResName=MOL,ResNum=1) 9    B9       8    A8       4    D7       0
 C(PDBName=C,ResName=MOL,ResNum=1) 10   B10      9    A9       8    D8       0
 C(PDBName=C,ResName=MOL,ResNum=1) 11   B11      10   A10      9    D9       0
 C(PDBName=C,ResName=MOL,ResNum=1) 8    B12      4    A11      3    D10      0
 H(PDBName=H,ResName=MOL,ResNum=1) 10   B13      9    A12      8    D11      0
 H(PDBName=H,ResName=MOL,ResNum=1) 12   B14      11   A13      10   D12      0
 H(PDBName=H,ResName=MOL,ResNum=1) 6    B15      5    A14      4    D13      0
 H(PDBName=H,ResName=MOL,ResNum=1) 5    B16      4    A15      3    D14      0
 H(PDBName=H,ResName=MOL,ResNum=1) 13   B17      8    A16      4    D15      0
 H(PDBName=H,ResName=MOL,ResNum=1) 1    B18      2    A17      3    D16      0
 H(PDBName=H,ResName=MOL,ResNum=1) 11   B19      10   A18      9    D17      0
 O(PDBName=O,ResName=MOL,ResNum=1) 4    B20      3    A19      2    D18      0
       Variables:
  B1                    1.39546                  
  B2                    1.40099                  
  B3                    1.40838                  
  B4                    1.38877                  
  B5                    1.39782                  
  B6                    1.08592                  
  B7                    1.5    Scan 20    0.1    
  B8                    1.40854                  
  B9                    1.40088                  
  B10                   1.39541                  
  B11                   1.4068                   
  B12                   1.3889                   
  B13                   1.08595                  
  B14                   1.08579                  
  B15                   1.08575                  
  B16                   1.08455                  
  B17                   1.08458                  
  B18                   1.08573                  
  B19                   1.08569                  
  B20                   1.37801                  
  A1                  118.61594                  
  A2                  118.97632                  
  A3                  123.41457                  
  A4                  116.64361                  
  A5                  120.55469                  
  A6                   74.5858                   
  A7                   74.59058                  
  A8                  118.97807                  
  A9                  118.6237                   
  A10                 121.04023                  
  A11                 162.0078                   
  A12                 120.82488                  
  A13                 119.43491                  
  A14                 119.24212                  
  A15                 121.29469                  
  A16                 121.25933                  
  A17                 119.58679                  
  A18                 119.60131                  
  A19                 111.56126                  
  D1                    0.                       
  D2                    0.                       
  D3                    0.                       
  D4                  180.                       
  D5                 -180.                       
  D6                    0.                       
  D7                 -179.99963                  
  D8                    0.                       
  D9                    0.                       
  D10                -179.99937                  
  D11                -179.9997                   
  D12                 179.99962                  
  D13                -179.99969                  
  D14                 179.9992                   
  D15                  -0.00141                  
  D16                -180.                       
  D17                -180.                       
  D18                -180.                       
 
 Center=      1.71307139      0.00000464      2.32905367
 Residue   1 PDB Number     1_0 MOL charge    0.00000000 layers R        AvRTP=      0.00000000      0.00000000     90.00000000
 Scan the potential surface.
 Variable   Value     No. Steps Step-Size
 -------- ----------- --------- ---------
     7       1.500000      20      0.1000
 A total of     21 points will be computed.
 ---------------------------------------------------------------------------------------------------
                            Z-MATRIX (ANGSTROMS AND DEGREES)
   CD    Cent   Atom    N1       Length/X        N2       Alpha/Y        N3        Beta/Z          J
 ---------------------------------------------------------------------------------------------------
      1      1  C 
      2      2  C        1   1.395462(     1)
      3      3  C        2   1.400987(     2)      1  118.616(    21)
      4      4  C        3   1.408381(     3)      2  118.976(    22)      1    0.000(    40)      0
      5      5  C        4   1.388768(     4)      3  123.415(    23)      2    0.000(    41)      0
      6      6  C        5   1.397824(     5)      4  116.644(    24)      3    0.000(    42)      0
      7      7  H        2   1.085916(     6)      1  120.555(    25)      6  180.000(    43)      0
      8      8  C        4   1.500000(     7)      3   74.586(    26)      2 -180.000(    44)      0
      9      9  C        8   1.408543(     8)      4   74.591(    27)      3    0.000(    45)      0
     10     10  C        9   1.400876(     9)      8  118.978(    28)      4 -180.000(    46)      0
     11     11  C       10   1.395410(    10)      9  118.624(    29)      8    0.000(    47)      0
     12     12  C       11   1.406796(    11)     10  121.040(    30)      9    0.000(    48)      0
     13     13  C        8   1.388904(    12)      4  162.008(    31)      3 -179.999(    49)      0
     14     14  H       10   1.085949(    13)      9  120.825(    32)      8 -180.000(    50)      0
     15     15  H       12   1.085794(    14)     11  119.435(    33)     10  180.000(    51)      0
     16     16  H        6   1.085747(    15)      5  119.242(    34)      4 -180.000(    52)      0
     17     17  H        5   1.084550(    16)      4  121.295(    35)      3  179.999(    53)      0
     18     18  H       13   1.084578(    17)      8  121.259(    36)      4   -0.001(    54)      0
     19     19  H        1   1.085730(    18)      2  119.587(    37)      3 -180.000(    55)      0
     20     20  H       11   1.085689(    19)     10  119.601(    38)      9 -180.000(    56)      0
     21     21  O        4   1.378011(    20)      3  111.561(    39)      2 -180.000(    57)      0
 ---------------------------------------------------------------------------------------------------
                         Z-Matrix orientation:                         
 ---------------------------------------------------------------------
 Center     Atomic      Atomic             Coordinates (Angstroms)
 Number     Number       Type             X           Y           Z
 ---------------------------------------------------------------------
      1          6           0        0.000000    0.000000    0.000000
      2          6           0        0.000000    0.000000    1.395462
      3          6           0        1.229856    0.000000    2.066445
      4          6           0        2.418890    0.000000    1.311636
      5          6           0        2.443293    0.000000   -0.076918
      6          6           0        1.205107    0.000000   -0.725615
      7          1           0       -0.935130    0.000000    1.947498
      8          6           0        2.857286    0.000000    2.746143
      9          6           0        1.449281    0.000000    2.785081
     10          6           0        0.804730    0.000008    4.028868
     11          6           0        1.584676    0.000016    5.185955
     12          6           0        2.989618    0.000015    5.113749
     13          6           0        3.653645    0.000005    3.884065
     14          1           0       -0.279273    0.000003    4.093857
     15          1           0        3.571048    0.000028    6.030749
     16          1           0        1.174949   -0.000005   -1.810943
     17          1           0        3.379805    0.000013   -0.623905
     18          1           0        4.735930   -0.000006    3.813576
     19          1           0       -0.944160    0.000000   -0.536070
     20          1           0        1.101663    0.000022    6.158282
     21          8           0        3.533285    0.000000    2.122214
 ---------------------------------------------------------------------
                    Distance matrix (angstroms):
                    1          2          3          4          5
     1  C    0.000000
     2  C    1.395462   0.000000
     3  C    2.404733   1.400987   0.000000
     4  C    2.751621   2.420342   1.408381   0.000000
     5  C    2.444503   2.852645   2.463013   1.388768   0.000000
     6  C    1.406698   2.439518   2.792170   2.371426   1.397824
     7  H    2.160375   1.085916   2.168251   3.413762   3.938528
     8  C    3.963001   3.160446   1.763665   1.500000   2.853255
     9  C    3.139601   2.007849   0.751389   1.763854   3.029703
    10  C    4.108451   2.753619   2.007943   3.160516   4.420675
    11  C    5.422668   4.108411   3.139625   3.963113   5.332453
    12  C    5.923533   4.771109   3.518924   3.844710   5.219339
    13  C    5.332455   4.420664   3.029603   2.853421   4.141779
    14  H    4.103371   2.712808   2.527423   3.875672   4.980735
    15  H    7.008731   5.851348   4.604007   4.857725   6.210912
    16  H    2.158708   3.414899   3.877777   3.361234   2.148381
    17  H    3.436908   3.937121   3.443873   2.160944   1.084550
    18  H    6.080492   5.317547   3.917272   3.410040   4.515764
    19  H    1.085730   2.149942   3.391081   3.837202   3.418429
    20  H    6.256045   4.888570   4.093844   5.022456   6.377906
    21  O    4.121638   3.607253   2.304104   1.378011   2.454438
                    6          7          8          9         10
     6  C    0.000000
     7  H    3.424347   0.000000
     8  C    3.844840   3.875597   0.000000
     9  C    3.519177   2.527244   1.408543   0.000000
    10  C    4.771311   2.712787   2.420407   1.400876   0.000000
    11  C    5.923744   4.103295   2.751767   2.404689   1.395410
    12  C    6.105952   5.042697   2.371302   2.792012   2.439407
    13  C    5.219625   4.980677   1.388904   2.463125   2.852593
    14  H    5.042885   2.244327   3.413844   2.168131   1.085949
    15  H    7.158640   6.081001   3.361264   3.877661   3.414681
    16  H    1.085747   4.310257   4.857704   4.604204   5.851535
    17  H    2.177075   5.023025   3.410315   3.917666   5.317829
    18  H    5.750736   5.970190   2.160721   3.443815   3.937091
    19  H    2.157609   2.483584   5.022341   4.093727   4.888483
    20  H    6.884674   4.677523   3.837304   3.391065   2.150017
    21  O    3.678389   4.471830   0.919926   2.186885   3.328716
                   11         12         13         14         15
    11  C    0.000000
    12  C    1.406796   0.000000
    13  C    2.444494   1.397517   0.000000
    14  H    2.160320   3.424300   3.938509   0.000000
    15  H    2.158553   1.085794   2.148272   4.310049   0.000000
    16  H    7.008885   7.158519   6.211043   6.081235   8.199599
    17  H    6.080869   5.750906   4.516279   5.970438   6.657401
    18  H    3.437125   2.177167   1.084578   5.023028   2.504557
    19  H    6.255924   6.884407   6.377884   4.677424   7.969329
    20  H    1.085689   2.157643   3.418285   2.483714   2.472676
    21  O    3.630922   3.040536   1.765958   4.292199   3.908717
                   16         17         18         19         20
    16  H    0.000000
    17  H    2.504087   0.000000
    18  H    6.657011   4.640076   0.000000
    19  H    2.473040   4.324857   7.154218   0.000000
    20  H    7.969562   7.154578   4.324990   6.999981   0.000000
    21  O    4.586009   2.750404   2.075345   5.207109   4.711967
                   21
    21  O    0.000000
 Symmetry turned off by external request.
 Stoichiometry    C12H8O
 Framework group  C1[X(C12H8O)]
 Deg. of freedom    57
 Full point group                 C1      NOp   1
 Rotational constants (GHZ):           2.2788716           0.7904245           0.5868694
 Standard basis: 6-31++G(d,p) (6D, 7F)
   295 basis functions,   480 primitive gaussians,   295 cartesian basis functions
    44 alpha electrons       44 beta electrons
       nuclear repulsion energy       772.4936830399 Hartrees.
 NAtoms=   21 NActive=   21 NUniq=   21 SFac= 1.00D+00 NAtFMM=   60 NAOKFM=F Big=F
 Integral buffers will be    131072 words long.
 Raffenetti 2 integral format.
 Two-electron integral symmetry is turned off.
 One-electron integrals computed using PRISM.
 NBasis=   295 RedAO= T EigKep=  2.19D-06  NBF=   295
 NBsUse=   290 1.00D-06 EigRej=  4.80D-07 NBFU=   290
 ExpMin= 3.60D-02 ExpMax= 5.48D+03 ExpMxC= 8.25D+02 IAcc=3 IRadAn=         5 AccDes= 0.00D+00
 Harris functional with IExCor=  402 and IRadAn=       5 diagonalized for initial guess.
 HarFok:  IExCor=  402 AccDes= 0.00D+00 IRadAn=         5 IDoV= 1 UseB2=F ITyADJ=14
 ICtDFT=  3500011 ScaDFX=  1.000000  1.000000  1.000000  1.000000
 FoFCou: FMM=F IPFlag=           0 FMFlag=      100000 FMFlg1=           0
         NFxFlg=           0 DoJE=T BraDBF=F KetDBF=T FulRan=T
         wScrn=  0.000000 ICntrl=       500 IOpCl=  0 I1Cent=   200000004 NGrid=           0
         NMat0=    1 NMatS0=      1 NMatT0=    0 NMatD0=    1 NMtDS0=    0 NMtDT0=    0
 Symmetry not used in FoFCou.
 Requested convergence on RMS density matrix=1.00D-08 within 128 cycles.
 Requested convergence on MAX density matrix=1.00D-06.
 Requested convergence on             energy=1.00D-06.
 No special actions if energy rises.
 SCF Done:  E(RB3LYP) =  -535.150467319     A.U. after   19 cycles
            NFock= 19  Conv=0.49D-08     -V/T= 1.9889

 **********************************************************************

            Population analysis using the SCF density.

 **********************************************************************

 Alpha  occ. eigenvalues --  -19.32813 -10.32074 -10.29945 -10.24981 -10.20024
 Alpha  occ. eigenvalues --  -10.19442 -10.19082 -10.18895 -10.18572 -10.17839
 Alpha  occ. eigenvalues --  -10.17370 -10.17043 -10.16800  -1.46786  -1.01706
 Alpha  occ. eigenvalues --   -0.88875  -0.82734  -0.79635  -0.77864  -0.72129
 Alpha  occ. eigenvalues --   -0.70460  -0.70232  -0.65671  -0.63397  -0.61708
 Alpha  occ. eigenvalues --   -0.55742  -0.53380  -0.52892  -0.52560  -0.48455
 Alpha  occ. eigenvalues --   -0.45537  -0.44956  -0.43286  -0.43187  -0.38499
 Alpha  occ. eigenvalues --   -0.38176  -0.35929  -0.34795  -0.32813  -0.31914
 Alpha  occ. eigenvalues --   -0.26225  -0.23166  -0.23038  -0.17143
 Alpha virt. eigenvalues --   -0.06559  -0.02764  -0.01132   0.00237   0.00339
 Alpha virt. eigenvalues --    0.01921   0.02242   0.02247   0.03181   0.04464
 Alpha virt. eigenvalues --    0.04555   0.04877   0.06054   0.06632   0.07558
 Alpha virt. eigenvalues --    0.07740   0.08052   0.08361   0.09254   0.09538
 Alpha virt. eigenvalues --    0.09767   0.10450   0.10681   0.11511   0.11737
 Alpha virt. eigenvalues --    0.12453   0.12906   0.13413   0.13513   0.13835
 Alpha virt. eigenvalues --    0.13909   0.14295   0.14771   0.15274   0.15582
 Alpha virt. eigenvalues --    0.15610   0.16371   0.17453   0.18181   0.18546
 Alpha virt. eigenvalues --    0.19003   0.19151   0.19200   0.19337   0.20273
 Alpha virt. eigenvalues --    0.21258   0.21601   0.22256   0.23865   0.24131
 Alpha virt. eigenvalues --    0.24466   0.25665   0.26398   0.26398   0.26875
 Alpha virt. eigenvalues --    0.27669   0.28790   0.29119   0.29820   0.30375
 Alpha virt. eigenvalues --    0.31291   0.32253   0.32484   0.32985   0.33456
 Alpha virt. eigenvalues --    0.33564   0.34399   0.35706   0.35788   0.36678
 Alpha virt. eigenvalues --    0.37358   0.37597   0.38102   0.40208   0.41365
 Alpha virt. eigenvalues --    0.43156   0.48762   0.50520   0.52470   0.58571
 Alpha virt. eigenvalues --    0.59396   0.60881   0.62219   0.66456   0.67392
 Alpha virt. eigenvalues --    0.68355   0.69449   0.69559   0.70042   0.71977
 Alpha virt. eigenvalues --    0.72602   0.73964   0.74170   0.75129   0.75519
 Alpha virt. eigenvalues --    0.76183   0.78705   0.79147   0.79888   0.81038
 Alpha virt. eigenvalues --    0.81339   0.84255   0.86474   0.86943   0.90788
 Alpha virt. eigenvalues --    0.93567   0.94686   0.95944   0.96591   0.97518
 Alpha virt. eigenvalues --    0.98415   1.00053   1.00544   1.01652   1.02404
 Alpha virt. eigenvalues --    1.04384   1.06305   1.06703   1.07543   1.10143
 Alpha virt. eigenvalues --    1.11399   1.11589   1.13186   1.15128   1.16326
 Alpha virt. eigenvalues --    1.19503   1.20863   1.22321   1.23359   1.24518
 Alpha virt. eigenvalues --    1.25737   1.28195   1.28992   1.32191   1.32764
 Alpha virt. eigenvalues --    1.34720   1.37483   1.37577   1.38993   1.41152
 Alpha virt. eigenvalues --    1.41402   1.42522   1.43734   1.46191   1.49689
 Alpha virt. eigenvalues --    1.50327   1.52543   1.57112   1.62538   1.64486
 Alpha virt. eigenvalues --    1.68705   1.73335   1.79540   1.80905   1.82245
 Alpha virt. eigenvalues --    1.86197   1.87815   1.87942   1.91361   1.93388
 Alpha virt. eigenvalues --    1.94749   1.95817   1.98992   1.99535   2.01507
 Alpha virt. eigenvalues --    2.03506   2.04500   2.05275   2.06442   2.08787
 Alpha virt. eigenvalues --    2.11506   2.15627   2.17344   2.21160   2.23559
 Alpha virt. eigenvalues --    2.24637   2.26039   2.28332   2.29967   2.36030
 Alpha virt. eigenvalues --    2.36855   2.38092   2.39049   2.39562   2.39696
 Alpha virt. eigenvalues --    2.43665   2.44617   2.46305   2.46372   2.47660
 Alpha virt. eigenvalues --    2.50180   2.51804   2.53689   2.56893   2.57425
 Alpha virt. eigenvalues --    2.58767   2.59419   2.61264   2.62947   2.63993
 Alpha virt. eigenvalues --    2.66800   2.68946   2.71977   2.72176   2.74291
 Alpha virt. eigenvalues --    2.76102   2.80446   2.82875   2.87361   2.95264
 Alpha virt. eigenvalues --    2.96105   3.02403   3.04557   3.04761   3.15295
 Alpha virt. eigenvalues --    3.18271   3.21530   3.29761   3.30777   3.31177
 Alpha virt. eigenvalues --    3.34464   3.37747   3.40113   3.42885   3.47020
 Alpha virt. eigenvalues --    3.50223   3.55046   3.64225   3.85967   3.87723
 Alpha virt. eigenvalues --    4.12465   4.30309   4.31509   4.32516   4.37373
 Alpha virt. eigenvalues --    4.40786   4.43030   4.49792   4.55142   4.59741
 Alpha virt. eigenvalues --    4.73434   4.91195   4.95050   5.31946   6.21861
 Alpha virt. eigenvalues --    8.62430
          Condensed to atoms (all electrons):
               1          2          3          4          5          6
     1  C    7.617768  -0.508373   0.030696   0.431054  -0.854483  -0.405875
     2  C   -0.508373  14.566395  -1.682319  -7.145343   3.207385   0.241064
     3  C    0.030696  -1.682319  29.452621  -5.906815  -0.989843  -1.259273
     4  C    0.431054  -7.145343  -5.906815  23.173004  -5.637459  -0.347168
     5  C   -0.854483   3.207385  -0.989843  -5.637459   9.214343   0.950841
     6  C   -0.405875   0.241064  -1.259273  -0.347168   0.950841   6.401694
     7  H   -0.141984   0.252789  -0.176591   0.164504   0.005197   0.103011
     8  C   -0.506959  -4.663267  -1.352283   5.366716  -1.418867   0.525079
     9  C    0.919355  -4.783337 -10.734948   1.682283  -0.730197  -0.579932
    10  C   -0.270604   5.286300  -1.908368  -4.993417   1.804344   0.147097
    11  C    0.183474  -0.186824   1.483947  -0.828167  -0.075600  -0.171417
    12  C   -0.145108   0.304967  -1.162824   0.615402   0.057621   0.115066
    13  C   -0.158760   1.168884   0.250822  -0.702567   0.451731   0.108638
    14  H   -0.063270  -0.056389  -0.174380   0.130863   0.020996   0.017965
    15  H   -0.001247   0.017722   0.003583  -0.009971   0.003091   0.001588
    16  H   -0.123704   0.055312   0.028937  -0.060576   0.034731   0.358455
    17  H   -0.041204  -0.016950   0.019535   0.130179   0.255764  -0.024360
    18  H   -0.004211  -0.010183  -0.106045  -0.037280   0.067671   0.007573
    19  H    0.298706   0.014323   0.011201   0.047834   0.000199  -0.076215
    20  H    0.000898  -0.019137  -0.006960   0.018333  -0.003306  -0.000570
    21  O   -0.134589   0.107961  -0.532504   0.102817   0.121123   0.128916
               7          8          9         10         11         12
     1  C   -0.141984  -0.506959   0.919355  -0.270604   0.183474  -0.145108
     2  C    0.252789  -4.663267  -4.783337   5.286300  -0.186824   0.304967
     3  C   -0.176591  -1.352283 -10.734948  -1.908368   1.483947  -1.162824
     4  C    0.164504   5.366716   1.682283  -4.993417  -0.828167   0.615402
     5  C    0.005197  -1.418867  -0.730197   1.804344  -0.075600   0.057621
     6  C    0.103011   0.525079  -0.579932   0.147097  -0.171417   0.115066
     7  H    0.732784   0.157816  -0.109914  -0.057670  -0.057626   0.023942
     8  C    0.157816  18.090616  -0.901548  -6.249542   0.743117  -0.829910
     9  C   -0.109914  -0.901548  29.355037  -4.054519  -0.936861  -0.814403
    10  C   -0.057670  -6.249542  -4.054519  13.932923  -0.779906   0.608732
    11  C   -0.057626   0.743117  -0.936861  -0.779906   8.583284  -0.458173
    12  C    0.023942  -0.829910  -0.814403   0.608732  -0.458173   6.415100
    13  C    0.014072  -3.304013  -2.232106   2.313003  -0.800790   0.706649
    14  H    0.007295   0.160898  -0.136332   0.282254  -0.097027   0.075242
    15  H    0.000050  -0.093378  -0.010839   0.108200  -0.124335   0.309402
    16  H   -0.001881  -0.012905   0.005782   0.014559  -0.002416   0.002192
    17  H    0.003558  -0.028913  -0.100507  -0.000831   0.000622   0.002060
    18  H    0.000532   0.203422  -0.021725  -0.036216  -0.031843  -0.058644
    19  H   -0.012033   0.015091  -0.009944  -0.019724   0.000287  -0.001630
    20  H    0.002225   0.051766   0.037729  -0.002375   0.283365  -0.062174
    21  O    0.008745  -0.089561  -0.542354   0.035805  -0.246413   0.295804
              13         14         15         16         17         18
     1  C   -0.158760  -0.063270  -0.001247  -0.123704  -0.041204  -0.004211
     2  C    1.168884  -0.056389   0.017722   0.055312  -0.016950  -0.010183
     3  C    0.250822  -0.174380   0.003583   0.028937   0.019535  -0.106045
     4  C   -0.702567   0.130863  -0.009971  -0.060576   0.130179  -0.037280
     5  C    0.451731   0.020996   0.003091   0.034731   0.255764   0.067671
     6  C    0.108638   0.017965   0.001588   0.358455  -0.024360   0.007573
     7  H    0.014072   0.007295   0.000050  -0.001881   0.003558   0.000532
     8  C   -3.304013   0.160898  -0.093378  -0.012905  -0.028913   0.203422
     9  C   -2.232106  -0.136332  -0.010839   0.005782  -0.100507  -0.021725
    10  C    2.313003   0.282254   0.108200   0.014559  -0.000831  -0.036216
    11  C   -0.800790  -0.097027  -0.124335  -0.002416   0.000622  -0.031843
    12  C    0.706649   0.075242   0.309402   0.002192   0.002060  -0.058644
    13  C    8.678510   0.014775   0.079409   0.006251   0.037067   0.263815
    14  H    0.014775   0.715866  -0.002561   0.000454   0.000519   0.004135
    15  H    0.079409  -0.002561   0.633922   0.000037  -0.000265  -0.006331
    16  H    0.006251   0.000454   0.000037   0.622515  -0.007107  -0.000147
    17  H    0.037067   0.000519  -0.000265  -0.007107   0.649486   0.001621
    18  H    0.263815   0.004135  -0.006331  -0.000147   0.001621   0.633905
    19  H   -0.001627   0.000813  -0.000020  -0.011922  -0.002308   0.000217
    20  H   -0.010654  -0.009320  -0.013628  -0.000025   0.000182  -0.001755
    21  O   -0.315536   0.012045   0.001212   0.000956   0.003304   0.002875
              19         20         21
     1  C    0.298706   0.000898  -0.134589
     2  C    0.014323  -0.019137   0.107961
     3  C    0.011201  -0.006960  -0.532504
     4  C    0.047834   0.018333   0.102817
     5  C    0.000199  -0.003306   0.121123
     6  C   -0.076215  -0.000570   0.128916
     7  H   -0.012033   0.002225   0.008745
     8  C    0.015091   0.051766  -0.089561
     9  C   -0.009944   0.037729  -0.542354
    10  C   -0.019724  -0.002375   0.035805
    11  C    0.000287   0.283365  -0.246413
    12  C   -0.001630  -0.062174   0.295804
    13  C   -0.001627  -0.010654  -0.315536
    14  H    0.000813  -0.009320   0.012045
    15  H   -0.000020  -0.013628   0.001212
    16  H   -0.011922  -0.000025   0.000956
    17  H   -0.002308   0.000182   0.003304
    18  H    0.000217  -0.001755   0.002875
    19  H    0.645177  -0.000064  -0.000392
    20  H   -0.000064   0.637521  -0.000324
    21  O   -0.000392  -0.000324   9.004615
 Mulliken charges:
               1
     1  C   -0.121580
     2  C   -0.150981
     3  C    0.711813
     4  C   -0.194226
     5  C   -0.485282
     6  C   -0.242177
     7  H    0.081180
     8  C    0.136624
     9  C    0.699281
    10  C   -0.160044
    11  C   -0.480698
    12  C    0.000688
    13  C   -0.567574
    14  H    0.095158
    15  H    0.104358
    16  H    0.090501
    17  H    0.118548
    18  H    0.128613
    19  H    0.102031
    20  H    0.098272
    21  O    0.035495
 Sum of Mulliken charges =   0.00000
 Mulliken charges with hydrogens summed into heavy atoms:
               1
     1  C   -0.019549
     2  C   -0.069801
     3  C    0.711813
     4  C   -0.194226
     5  C   -0.366734
     6  C   -0.151676
     8  C    0.136624
     9  C    0.699281
    10  C   -0.064886
    11  C   -0.382426
    12  C    0.105046
    13  C   -0.438961
    21  O    0.035495
 Electronic spatial extent (au):  <R**2>=           4629.7936
 Charge=              0.0000 electrons
 Dipole moment (field-independent basis, Debye):
    X=              1.5137    Y=              0.0000    Z=              0.3234  Tot=              1.5479
 Quadrupole moment (field-independent basis, Debye-Ang):
   XX=            -61.7759   YY=            -78.3099   ZZ=            -73.2920
   XY=              0.0000   XZ=              2.0624   YZ=              0.0000
 Traceless Quadrupole moment (field-independent basis, Debye-Ang):
   XX=              9.3501   YY=             -7.1840   ZZ=             -2.1661
   XY=              0.0000   XZ=              2.0624   YZ=              0.0000
 Octapole moment (field-independent basis, Debye-Ang**2):
  XXX=           -350.6888  YYY=             -0.0009  ZZZ=           -506.1212  XYY=           -139.2896
  XXY=             -0.0003  XXZ=           -149.5948  XZZ=           -133.9261  YZZ=             -0.0001
  YYZ=           -179.0634  XYZ=              0.0000
 Hexadecapole moment (field-independent basis, Debye-Ang**3):
 XXXX=          -2031.5648 YYYY=            -96.5952 ZZZZ=          -4031.8353 XXXY=             -0.0022
 XXXZ=           -999.6298 YYYX=             -0.0021 YYYZ=             -0.0046 ZZZX=          -1102.0693
 ZZZY=             -0.0015 XXYY=           -411.2838 XXZZ=          -1010.1747 YYZZ=           -770.2554
 XXYZ=             -0.0017 YYXZ=           -386.9975 ZZXY=              0.0000
 N-N= 7.724936830399D+02 E-N=-2.793004786244D+03  KE= 5.411574968551D+02
 Variable Step   Value    
 -------- ---- -----------
     7       1    3.023562
 ---------------------------------------------------------------------------------------------------
                            Z-MATRIX (ANGSTROMS AND DEGREES)
   CD    Cent   Atom    N1       Length/X        N2       Alpha/Y        N3        Beta/Z          J
 ---------------------------------------------------------------------------------------------------
      1      1  C 
      2      2  C        1   1.395462(     1)
      3      3  C        2   1.400987(     2)      1  118.616(    21)
      4      4  C        3   1.408381(     3)      2  118.976(    22)      1    0.000(    40)      0
      5      5  C        4   1.388768(     4)      3  123.415(    23)      2    0.000(    41)      0
      6      6  C        5   1.397824(     5)      4  116.644(    24)      3    0.000(    42)      0
      7      7  H        2   1.085916(     6)      1  120.555(    25)      6  180.000(    43)      0
      8      8  C        4   1.600000(     7)      3   74.586(    26)      2 -180.000(    44)      0
      9      9  C        8   1.408543(     8)      4   74.591(    27)      3    0.000(    45)      0
     10     10  C        9   1.400876(     9)      8  118.978(    28)      4 -180.000(    46)      0
     11     11  C       10   1.395410(    10)      9  118.624(    29)      8    0.000(    47)      0
     12     12  C       11   1.406796(    11)     10  121.040(    30)      9    0.000(    48)      0
     13     13  C        8   1.388904(    12)      4  162.008(    31)      3 -179.999(    49)      0
     14     14  H       10   1.085949(    13)      9  120.825(    32)      8 -180.000(    50)      0
     15     15  H       12   1.085794(    14)     11  119.435(    33)     10  180.000(    51)      0
     16     16  H        6   1.085747(    15)      5  119.242(    34)      4 -180.000(    52)      0
     17     17  H        5   1.084550(    16)      4  121.295(    35)      3  179.999(    53)      0
     18     18  H       13   1.084578(    17)      8  121.259(    36)      4   -0.001(    54)      0
     19     19  H        1   1.085730(    18)      2  119.587(    37)      3 -180.000(    55)      0
     20     20  H       11   1.085689(    19)     10  119.601(    38)      9 -180.000(    56)      0
     21     21  O        4   1.378011(    20)      3  111.561(    39)      2 -180.000(    57)      0
 ---------------------------------------------------------------------------------------------------
                         Z-Matrix orientation:                         
 ---------------------------------------------------------------------
 Center     Atomic      Atomic             Coordinates (Angstroms)
 Number     Number       Type             X           Y           Z
 ---------------------------------------------------------------------
      1          6           0        0.000000    0.000000    0.000000
      2          6           0        0.000000    0.000000    1.395462
      3          6           0        1.229856    0.000000    2.066445
      4          6           0        2.418890    0.000000    1.311636
      5          6           0        2.443293    0.000000   -0.076918
      6          6           0        1.205107    0.000000   -0.725615
      7          1           0       -0.935130    0.000000    1.947498
      8          6           0        2.886512    0.000000    2.841776
      9          6           0        1.478508    0.000000    2.880715
     10          6           0        0.833956    0.000008    4.124502
     11          6           0        1.613902    0.000016    5.281589
     12          6           0        3.018845    0.000015    5.209383
     13          6           0        3.682871    0.000005    3.979699
     14          1           0       -0.250046    0.000003    4.189490
     15          1           0        3.600275    0.000028    6.126382
     16          1           0        1.174949   -0.000005   -1.810943
     17          1           0        3.379805    0.000013   -0.623905
     18          1           0        4.765156   -0.000006    3.909209
     19          1           0       -0.944160    0.000000   -0.536070
     20          1           0        1.130890    0.000022    6.253916
     21          8           0        3.533285    0.000000    2.122214
 ---------------------------------------------------------------------
                    Distance matrix (angstroms):
                    1          2          3          4          5
     1  C    0.000000
     2  C    1.395462   0.000000
     3  C    2.404733   1.400987   0.000000
     4  C    2.751621   2.420342   1.408381   0.000000
     5  C    2.444503   2.852645   2.463013   1.388768   0.000000
     6  C    1.406698   2.439518   2.792170   2.371426   1.397824
     7  H    2.160375   1.085916   2.168251   3.413762   3.938528
     8  C    4.050635   3.228588   1.829111   1.600000   2.952155
     9  C    3.237978   2.095701   0.851389   1.829297   3.111013
    10  C    4.207968   2.853619   2.095790   3.228657   4.499099
    11  C    5.522668   4.207929   3.238000   4.050745   5.422314
    12  C    6.020888   4.864095   3.616426   3.943650   5.317540
    13  C    5.422319   4.499091   3.110920   2.952322   4.241779
    14  H    4.196946   2.805195   2.587940   3.924954   5.045425
    15  H    7.105951   5.945047   4.701274   4.957565   6.310273
    16  H    2.158708   3.414899   3.877777   3.361234   2.148381
    17  H    3.436908   3.937121   3.443873   2.160944   1.084550
    18  H    6.163492   5.387545   3.986744   3.500336   4.613053
    19  H    1.085730   2.149942   3.391081   3.837202   3.418429
    20  H    6.355342   4.988335   4.188640   5.107355   6.465436
    21  O    4.121638   3.607253   2.304104   1.378011   2.454438
                    6          7          8          9         10
     6  C    0.000000
     7  H    3.424347   0.000000
     8  C    3.943781   3.924880   0.000000
     9  C    3.616678   2.587767   1.408543   0.000000
    10  C    4.864297   2.805176   2.420407   1.400876   0.000000
    11  C    6.021098   4.196871   2.751767   2.404689   1.395410
    12  C    6.205952   5.125798   2.371302   2.792012   2.439407
    13  C    5.317828   5.045372   1.388904   2.463125   2.852593
    14  H    5.125986   2.344327   3.413844   2.168131   1.085949
    15  H    7.258560   6.167088   3.361264   3.877661   3.414681
    16  H    1.085747   4.310257   4.957545   4.701468   5.945232
    17  H    2.177075   5.023025   3.500612   3.987141   5.387830
    18  H    5.844275   6.028397   2.160721   3.443815   3.937091
    19  H    2.157609   2.483584   5.107239   4.188524   4.988248
    20  H    6.979925   4.776365   3.837304   3.391065   2.150017
    21  O    3.678389   4.471830   0.967516   2.190305   3.360883
                   11         12         13         14         15
    11  C    0.000000
    12  C    1.406796   0.000000
    13  C    2.444494   1.397517   0.000000
    14  H    2.160320   3.424300   3.938509   0.000000
    15  H    2.158553   1.085794   2.148272   4.310049   0.000000
    16  H    7.106103   7.258438   6.310405   6.167318   8.299599
    17  H    6.163868   5.844445   4.613569   6.028648   6.753887
    18  H    3.437125   2.177167   1.084578   5.023028   2.504557
    19  H    6.355221   6.979658   6.465414   4.776265   8.064748
    20  H    1.085689   2.157643   3.418285   2.483714   2.472676
    21  O    3.696713   3.129738   1.863498   4.311291   4.004729
                   16         17         18         19         20
    16  H    0.000000
    17  H    2.504087   0.000000
    18  H    6.753498   4.740076   0.000000
    19  H    2.473040   4.324857   7.235799   0.000000
    20  H    8.064979   7.236162   4.324990   7.099981   0.000000
    21  O    4.586009   2.750404   2.170451   5.207109   4.779379
                   21
    21  O    0.000000
 Symmetry turned off by external request.
 Stoichiometry    C12H8O
 Framework group  C1[X(C12H8O)]
 Deg. of freedom    57
 Full point group                 C1      NOp   1
 Rotational constants (GHZ):           2.2782351           0.7585318           0.5690637
 Standard basis: 6-31++G(d,p) (6D, 7F)
   295 basis functions,   480 primitive gaussians,   295 cartesian basis functions
    44 alpha electrons       44 beta electrons
       nuclear repulsion energy       760.3184695750 Hartrees.
 NAtoms=   21 NActive=   21 NUniq=   21 SFac= 1.00D+00 NAtFMM=   60 NAOKFM=F Big=F
 Integral buffers will be    131072 words long.
 Raffenetti 2 integral format.
 Two-electron integral symmetry is turned off.
 One-electron integrals computed using PRISM.
 NBasis=   295 RedAO= T EigKep=  2.51D-06  NBF=   295
 NBsUse=   290 1.00D-06 EigRej=  5.00D-07 NBFU=   290
 Initial guess from the checkpoint file:  "C:\Users\Administrator\Desktop\dataset_dft\C12H8O1\C12H8O1.chk"
 B after Tr=     0.019239    0.000000    0.086903
         Rot=    1.000000    0.000000   -0.000675    0.000000 Ang=  -0.08 deg.
 ExpMin= 3.60D-02 ExpMax= 5.48D+03 ExpMxC= 8.25D+02 IAcc=3 IRadAn=         5 AccDes= 0.00D+00
 Harris functional with IExCor=  402 and IRadAn=       5 diagonalized for initial guess.
 HarFok:  IExCor=  402 AccDes= 0.00D+00 IRadAn=         5 IDoV= 1 UseB2=F ITyADJ=14
 ICtDFT=  3500011 ScaDFX=  1.000000  1.000000  1.000000  1.000000
 FoFCou: FMM=F IPFlag=           0 FMFlag=      100000 FMFlg1=           0
         NFxFlg=           0 DoJE=T BraDBF=F KetDBF=T FulRan=T
         wScrn=  0.000000 ICntrl=       500 IOpCl=  0 I1Cent=   200000004 NGrid=           0
         NMat0=    1 NMatS0=      1 NMatT0=    0 NMatD0=    1 NMtDS0=    0 NMtDT0=    0
 Symmetry not used in FoFCou.
 Requested convergence on RMS density matrix=1.00D-08 within 128 cycles.
 Requested convergence on MAX density matrix=1.00D-06.
 Requested convergence on             energy=1.00D-06.
 No special actions if energy rises.
 SCF Done:  E(RB3LYP) =  -536.050312482     A.U. after   15 cycles
            NFock= 15  Conv=0.54D-08     -V/T= 1.9949
 Variable Step   Value    
 -------- ---- -----------
     7       2    3.212534
 ---------------------------------------------------------------------------------------------------
                            Z-MATRIX (ANGSTROMS AND DEGREES)
   CD    Cent   Atom    N1       Length/X        N2       Alpha/Y        N3        Beta/Z          J
 ---------------------------------------------------------------------------------------------------
      1      1  C 
      2      2  C        1   1.395462(     1)
      3      3  C        2   1.400987(     2)      1  118.616(    21)
      4      4  C        3   1.408381(     3)      2  118.976(    22)      1    0.000(    40)      0
      5      5  C        4   1.388768(     4)      3  123.415(    23)      2    0.000(    41)      0
      6      6  C        5   1.397824(     5)      4  116.644(    24)      3    0.000(    42)      0
      7      7  H        2   1.085916(     6)      1  120.555(    25)      6  180.000(    43)      0
      8      8  C        4   1.700000(     7)      3   74.586(    26)      2 -180.000(    44)      0
      9      9  C        8   1.408543(     8)      4   74.591(    27)      3    0.000(    45)      0
     10     10  C        9   1.400876(     9)      8  118.978(    28)      4 -180.000(    46)      0
     11     11  C       10   1.395410(    10)      9  118.624(    29)      8    0.000(    47)      0
     12     12  C       11   1.406796(    11)     10  121.040(    30)      9    0.000(    48)      0
     13     13  C        8   1.388904(    12)      4  162.008(    31)      3 -179.999(    49)      0
     14     14  H       10   1.085949(    13)      9  120.825(    32)      8 -180.000(    50)      0
     15     15  H       12   1.085794(    14)     11  119.435(    33)     10  180.000(    51)      0
     16     16  H        6   1.085747(    15)      5  119.242(    34)      4 -180.000(    52)      0
     17     17  H        5   1.084550(    16)      4  121.295(    35)      3  179.999(    53)      0
     18     18  H       13   1.084578(    17)      8  121.259(    36)      4   -0.001(    54)      0
     19     19  H        1   1.085730(    18)      2  119.587(    37)      3 -180.000(    55)      0
     20     20  H       11   1.085689(    19)     10  119.601(    38)      9 -180.000(    56)      0
     21     21  O        4   1.378011(    20)      3  111.561(    39)      2 -180.000(    57)      0
 ---------------------------------------------------------------------------------------------------
                         Z-Matrix orientation:                         
 ---------------------------------------------------------------------
 Center     Atomic      Atomic             Coordinates (Angstroms)
 Number     Number       Type             X           Y           Z
 ---------------------------------------------------------------------
      1          6           0        0.000000    0.000000    0.000000
      2          6           0        0.000000    0.000000    1.395462
      3          6           0        1.229856    0.000000    2.066445
      4          6           0        2.418890    0.000000    1.311636
      5          6           0        2.443293    0.000000   -0.076918
      6          6           0        1.205107    0.000000   -0.725615
      7          1           0       -0.935130    0.000000    1.947498
      8          6           0        2.915738    0.000000    2.937410
      9          6           0        1.507734    0.000000    2.976349
     10          6           0        0.863182    0.000008    4.220136
     11          6           0        1.643129    0.000016    5.377223
     12          6           0        3.048071    0.000015    5.305016
     13          6           0        3.712098    0.000005    4.075332
     14          1           0       -0.220820    0.000003    4.285124
     15          1           0        3.629501    0.000028    6.222016
     16          1           0        1.174949   -0.000005   -1.810943
     17          1           0        3.379805    0.000013   -0.623905
     18          1           0        4.794382   -0.000006    4.004843
     19          1           0       -0.944160    0.000000   -0.536070
     20          1           0        1.160116    0.000022    6.349549
     21          8           0        3.533285    0.000000    2.122214
 ---------------------------------------------------------------------
                    Distance matrix (angstroms):
                    1          2          3          4          5
     1  C    0.000000
     2  C    1.395462   0.000000
     3  C    2.404733   1.400987   0.000000
     4  C    2.751621   2.420342   1.408381   0.000000
     5  C    2.444503   2.852645   2.463013   1.388768   0.000000
     6  C    1.406698   2.439518   2.792170   2.371426   1.397824
     7  H    2.160375   1.085916   2.168251   3.413762   3.938528
     8  C    4.138829   3.298353   1.897572   1.700000   3.051128
     9  C    3.336452   2.184597   0.951389   1.897755   3.193385
    10  C    4.307508   2.953619   2.184681   3.298423   4.578364
    11  C    5.622668   4.307470   3.336472   4.138937   5.512524
    12  C    6.118328   4.957354   3.714061   4.042642   5.415808
    13  C    5.512532   4.578360   3.193298   3.051295   4.341779
    14  H    4.290810   2.898087   2.650848   3.976141   5.111253
    15  H    7.203247   6.038949   4.798653   5.057412   6.409654
    16  H    2.158708   3.414899   3.877777   3.361234   2.148381
    17  H    3.436908   3.937121   3.443873   2.160944   1.084550
    18  H    6.246989   5.458477   4.057491   3.591146   4.710456
    19  H    1.085730   2.149942   3.391081   3.837202   3.418429
    20  H    6.454661   5.088109   4.283672   5.192791   6.553322
    21  O    4.121638   3.607253   2.304104   1.378011   2.454438
                    6          7          8          9         10
     6  C    0.000000
     7  H    3.424347   0.000000
     8  C    4.042773   3.976068   0.000000
     9  C    3.714313   2.650683   1.408543   0.000000
    10  C    4.957556   2.898070   2.420407   1.400876   0.000000
    11  C    6.118537   4.290738   2.751767   2.404689   1.395410
    12  C    6.305952   5.209493   2.371302   2.792012   2.439407
    13  C    5.416096   5.111204   1.388904   2.463125   2.852593
    14  H    5.209681   2.444327   3.413844   2.168131   1.085949
    15  H    7.358483   6.253588   3.361264   3.877661   3.414681
    16  H    1.085747   4.310257   5.057392   4.798845   6.039132
    17  H    2.177075   5.023025   3.591424   4.057891   5.458765
    18  H    5.938024   6.087691   2.160721   3.443815   3.937091
    19  H    2.157609   2.483584   5.192675   4.283558   5.088023
    20  H    7.075307   4.875255   3.837304   3.391065   2.150017
    21  O    3.678389   4.471830   1.022697   2.198273   3.395692
                   11         12         13         14         15
    11  C    0.000000
    12  C    1.406796   0.000000
    13  C    2.444494   1.397517   0.000000
    14  H    2.160320   3.424300   3.938509   0.000000
    15  H    2.158553   1.085794   2.148272   4.310049   0.000000
    16  H    7.203397   7.358361   6.409787   6.253816   8.399599
    17  H    6.247366   5.938195   4.710971   6.087944   6.850473
    18  H    3.437125   2.177167   1.084578   5.023028   2.504557
    19  H    6.454540   7.075040   6.553302   4.875154   8.160276
    20  H    1.085689   2.157643   3.418285   2.483714   2.472676
    21  O    3.764011   3.219576   1.961287   4.332608   4.100931
                   16         17         18         19         20
    16  H    0.000000
    17  H    2.504087   0.000000
    18  H    6.850086   4.840076   0.000000
    19  H    2.473040   4.324857   7.317838   0.000000
    20  H    8.160506   7.318202   4.324990   7.199981   0.000000
    21  O    4.586009   2.750404   2.265979   5.207109   4.847917
                   21
    21  O    0.000000
 Symmetry turned off by external request.
 Stoichiometry    C12H8O
 Framework group  C1[X(C12H8O)]
 Deg. of freedom    57
 Full point group                 C1      NOp   1
 Rotational constants (GHZ):           2.2777440           0.7282233           0.5518045
 Standard basis: 6-31++G(d,p) (6D, 7F)
   295 basis functions,   480 primitive gaussians,   295 cartesian basis functions
    44 alpha electrons       44 beta electrons
       nuclear repulsion energy       749.1266030658 Hartrees.
 NAtoms=   21 NActive=   21 NUniq=   21 SFac= 1.00D+00 NAtFMM=   60 NAOKFM=F Big=F
 Integral buffers will be    131072 words long.
 Raffenetti 2 integral format.
 Two-electron integral symmetry is turned off.
 One-electron integrals computed using PRISM.
 NBasis=   295 RedAO= T EigKep=  2.87D-06  NBF=   295
 NBsUse=   290 1.00D-06 EigRej=  5.24D-07 NBFU=   290
 Initial guess from the checkpoint file:  "C:\Users\Administrator\Desktop\dataset_dft\C12H8O1\C12H8O1.chk"
 B after Tr=     0.019304    0.000000    0.086796
         Rot=    1.000000    0.000000   -0.000655    0.000000 Ang=  -0.08 deg.
 ExpMin= 3.60D-02 ExpMax= 5.48D+03 ExpMxC= 8.25D+02 IAcc=3 IRadAn=         5 AccDes= 0.00D+00
 Harris functional with IExCor=  402 and IRadAn=       5 diagonalized for initial guess.
 HarFok:  IExCor=  402 AccDes= 0.00D+00 IRadAn=         5 IDoV= 1 UseB2=F ITyADJ=14
 ICtDFT=  3500011 ScaDFX=  1.000000  1.000000  1.000000  1.000000
 FoFCou: FMM=F IPFlag=           0 FMFlag=      100000 FMFlg1=           0
         NFxFlg=           0 DoJE=T BraDBF=F KetDBF=T FulRan=T
         wScrn=  0.000000 ICntrl=       500 IOpCl=  0 I1Cent=   200000004 NGrid=           0
         NMat0=    1 NMatS0=      1 NMatT0=    0 NMatD0=    1 NMtDS0=    0 NMtDT0=    0
 Symmetry not used in FoFCou.
 Requested convergence on RMS density matrix=1.00D-08 within 128 cycles.
 Requested convergence on MAX density matrix=1.00D-06.
 Requested convergence on             energy=1.00D-06.
 No special actions if energy rises.
 SCF Done:  E(RB3LYP) =  -536.618320461     A.U. after   14 cycles
            NFock= 14  Conv=0.73D-08     -V/T= 1.9995
 Variable Step   Value    
 -------- ---- -----------
     7       3    3.401507
 ---------------------------------------------------------------------------------------------------
                            Z-MATRIX (ANGSTROMS AND DEGREES)
   CD    Cent   Atom    N1       Length/X        N2       Alpha/Y        N3        Beta/Z          J
 ---------------------------------------------------------------------------------------------------
      1      1  C 
      2      2  C        1   1.395462(     1)
      3      3  C        2   1.400987(     2)      1  118.616(    21)
      4      4  C        3   1.408381(     3)      2  118.976(    22)      1    0.000(    40)      0
      5      5  C        4   1.388768(     4)      3  123.415(    23)      2    0.000(    41)      0
      6      6  C        5   1.397824(     5)      4  116.644(    24)      3    0.000(    42)      0
      7      7  H        2   1.085916(     6)      1  120.555(    25)      6  180.000(    43)      0
      8      8  C        4   1.800000(     7)      3   74.586(    26)      2 -180.000(    44)      0
      9      9  C        8   1.408543(     8)      4   74.591(    27)      3    0.000(    45)      0
     10     10  C        9   1.400876(     9)      8  118.978(    28)      4 -180.000(    46)      0
     11     11  C       10   1.395410(    10)      9  118.624(    29)      8    0.000(    47)      0
     12     12  C       11   1.406796(    11)     10  121.040(    30)      9    0.000(    48)      0
     13     13  C        8   1.388904(    12)      4  162.008(    31)      3 -179.999(    49)      0
     14     14  H       10   1.085949(    13)      9  120.825(    32)      8 -180.000(    50)      0
     15     15  H       12   1.085794(    14)     11  119.435(    33)     10  180.000(    51)      0
     16     16  H        6   1.085747(    15)      5  119.242(    34)      4 -180.000(    52)      0
     17     17  H        5   1.084550(    16)      4  121.295(    35)      3  179.999(    53)      0
     18     18  H       13   1.084578(    17)      8  121.259(    36)      4   -0.001(    54)      0
     19     19  H        1   1.085730(    18)      2  119.587(    37)      3 -180.000(    55)      0
     20     20  H       11   1.085689(    19)     10  119.601(    38)      9 -180.000(    56)      0
     21     21  O        4   1.378011(    20)      3  111.561(    39)      2 -180.000(    57)      0
 ---------------------------------------------------------------------------------------------------
                         Z-Matrix orientation:                         
 ---------------------------------------------------------------------
 Center     Atomic      Atomic             Coordinates (Angstroms)
 Number     Number       Type             X           Y           Z
 ---------------------------------------------------------------------
      1          6           0        0.000000    0.000000    0.000000
      2          6           0        0.000000    0.000000    1.395462
      3          6           0        1.229856    0.000000    2.066445
      4          6           0        2.418890    0.000000    1.311636
      5          6           0        2.443293    0.000000   -0.076918
      6          6           0        1.205107    0.000000   -0.725615
      7          1           0       -0.935130    0.000000    1.947498
      8          6           0        2.944965    0.000000    3.033044
      9          6           0        1.536960    0.000000    3.071982
     10          6           0        0.892409    0.000008    4.315769
     11          6           0        1.672355    0.000016    5.472857
     12          6           0        3.077297    0.000015    5.400650
     13          6           0        3.741324    0.000005    4.170966
     14          1           0       -0.191593    0.000003    4.380758
     15          1           0        3.658727    0.000028    6.317650
     16          1           0        1.174949   -0.000005   -1.810943
     17          1           0        3.379805    0.000013   -0.623905
     18          1           0        4.823609   -0.000006    4.100477
     19          1           0       -0.944160    0.000000   -0.536070
     20          1           0        1.189342    0.000022    6.445183
     21          8           0        3.533285    0.000000    2.122214
 ---------------------------------------------------------------------
                    Distance matrix (angstroms):
                    1          2          3          4          5
     1  C    0.000000
     2  C    1.395462   0.000000
     3  C    2.404733   1.400987   0.000000
     4  C    2.751621   2.420342   1.408381   0.000000
     5  C    2.444503   2.852645   2.463013   1.388768   0.000000
     6  C    1.406698   2.439518   2.792170   2.371426   1.397824
     7  H    2.160375   1.085916   2.168251   3.413762   3.938528
     8  C    4.227549   3.369643   1.968733   1.800000   3.150165
     9  C    3.435014   2.274416   1.051389   1.968913   3.276738
    10  C    4.407069   3.053619   2.274496   3.369712   4.658427
    11  C    5.722668   4.407031   3.435032   4.227656   5.603066
    12  C    6.215849   5.050871   3.811819   4.141683   5.514138
    13  C    5.603076   4.658426   3.276657   3.150333   4.441779
    14  H    4.384946   2.991438   2.715983   4.029160   5.178176
    15  H    7.300616   6.133044   4.896137   5.157264   6.509054
    16  H    2.158708   3.414899   3.877777   3.361234   2.148381
    17  H    3.436908   3.937121   3.443873   2.160944   1.084550
    18  H    6.330965   5.530308   4.129449   3.682432   4.807966
    19  H    1.085730   2.149942   3.391081   3.837202   3.418429
    20  H    6.554000   5.187892   4.378925   5.278740   6.641551
    21  O    4.121638   3.607253   2.304104   1.378011   2.454438
                    6          7          8          9         10
     6  C    0.000000
     7  H    3.424347   0.000000
     8  C    4.141814   4.029087   0.000000
     9  C    3.812069   2.715823   1.408543   0.000000
    10  C    5.051073   2.991422   2.420407   1.400876   0.000000
    11  C    6.216058   4.384875   2.751767   2.404689   1.395410
    12  C    6.405952   5.293754   2.371302   2.792012   2.439407
    13  C    5.514427   5.178130   1.388904   2.463125   2.852593
    14  H    5.293942   2.544327   3.413844   2.168131   1.085949
    15  H    7.458407   6.340485   3.361264   3.877661   3.414681
    16  H    1.085747   4.310257   5.157244   4.896327   6.133224
    17  H    2.177075   5.023025   3.682711   4.129850   5.530599
    18  H    6.031975   6.148040   2.160721   3.443815   3.937091
    19  H    2.157609   2.483584   5.278623   4.378812   5.187805
    20  H    7.170815   4.974188   3.837304   3.391065   2.150017
    21  O    3.678389   4.471830   1.084312   2.210741   3.433062
                   11         12         13         14         15
    11  C    0.000000
    12  C    1.406796   0.000000
    13  C    2.444494   1.397517   0.000000
    14  H    2.160320   3.424300   3.938509   0.000000
    15  H    2.158553   1.085794   2.148272   4.310049   0.000000
    16  H    7.300764   7.458285   6.509188   6.340710   8.499599
    17  H    6.331342   6.032145   4.808481   6.148296   6.947157
    18  H    3.437125   2.177167   1.084578   5.023028   2.504557
    19  H    6.553880   7.170548   6.641532   4.974088   8.255910
    20  H    1.085689   2.157643   3.418285   2.483714   2.472676
    21  O    3.832737   3.309996   2.059288   4.356116   4.197311
                   16         17         18         19         20
    16  H    0.000000
    17  H    2.504087   0.000000
    18  H    6.946770   4.940076   0.000000
    19  H    2.473040   4.324857   7.400319   0.000000
    20  H    8.256139   7.400685   4.324990   7.299981   0.000000
    21  O    4.586009   2.750404   2.361876   5.207109   4.917533
                   21
    21  O    0.000000
 Symmetry turned off by external request.
 Stoichiometry    C12H8O
 Framework group  C1[X(C12H8O)]
 Deg. of freedom    57
 Full point group                 C1      NOp   1
 Rotational constants (GHZ):           2.2773765           0.6994252           0.5350893
 Standard basis: 6-31++G(d,p) (6D, 7F)
   295 basis functions,   480 primitive gaussians,   295 cartesian basis functions
    44 alpha electrons       44 beta electrons
       nuclear repulsion energy       738.7661046762 Hartrees.
 NAtoms=   21 NActive=   21 NUniq=   21 SFac= 1.00D+00 NAtFMM=   60 NAOKFM=F Big=F
 Integral buffers will be    131072 words long.
 Raffenetti 2 integral format.
 Two-electron integral symmetry is turned off.
 One-electron integrals computed using PRISM.
 NBasis=   295 RedAO= T EigKep=  3.25D-06  NBF=   295
 NBsUse=   290 1.00D-06 EigRej=  6.82D-07 NBFU=   290
 Initial guess from the checkpoint file:  "C:\Users\Administrator\Desktop\dataset_dft\C12H8O1\C12H8O1.chk"
 B after Tr=     0.019370    0.000000    0.086692
         Rot=    1.000000    0.000000   -0.000636    0.000000 Ang=  -0.07 deg.
 ExpMin= 3.60D-02 ExpMax= 5.48D+03 ExpMxC= 8.25D+02 IAcc=3 IRadAn=         5 AccDes= 0.00D+00
 Harris functional with IExCor=  402 and IRadAn=       5 diagonalized for initial guess.
 HarFok:  IExCor=  402 AccDes= 0.00D+00 IRadAn=         5 IDoV= 1 UseB2=F ITyADJ=14
 ICtDFT=  3500011 ScaDFX=  1.000000  1.000000  1.000000  1.000000
 FoFCou: FMM=F IPFlag=           0 FMFlag=      100000 FMFlg1=           0
         NFxFlg=           0 DoJE=T BraDBF=F KetDBF=T FulRan=T
         wScrn=  0.000000 ICntrl=       500 IOpCl=  0 I1Cent=   200000004 NGrid=           0
         NMat0=    1 NMatS0=      1 NMatT0=    0 NMatD0=    1 NMtDS0=    0 NMtDT0=    0
 Symmetry not used in FoFCou.
 Requested convergence on RMS density matrix=1.00D-08 within 128 cycles.
 Requested convergence on MAX density matrix=1.00D-06.
 Requested convergence on             energy=1.00D-06.
 No special actions if energy rises.
 SCF Done:  E(RB3LYP) =  -536.969374085     A.U. after   14 cycles
            NFock= 14  Conv=0.70D-08     -V/T= 2.0029
 Variable Step   Value    
 -------- ---- -----------
     7       4    3.590480
 ---------------------------------------------------------------------------------------------------
                            Z-MATRIX (ANGSTROMS AND DEGREES)
   CD    Cent   Atom    N1       Length/X        N2       Alpha/Y        N3        Beta/Z          J
 ---------------------------------------------------------------------------------------------------
      1      1  C 
      2      2  C        1   1.395462(     1)
      3      3  C        2   1.400987(     2)      1  118.616(    21)
      4      4  C        3   1.408381(     3)      2  118.976(    22)      1    0.000(    40)      0
      5      5  C        4   1.388768(     4)      3  123.415(    23)      2    0.000(    41)      0
      6      6  C        5   1.397824(     5)      4  116.644(    24)      3    0.000(    42)      0
      7      7  H        2   1.085916(     6)      1  120.555(    25)      6  180.000(    43)      0
      8      8  C        4   1.900000(     7)      3   74.586(    26)      2 -180.000(    44)      0
      9      9  C        8   1.408543(     8)      4   74.591(    27)      3    0.000(    45)      0
     10     10  C        9   1.400876(     9)      8  118.978(    28)      4 -180.000(    46)      0
     11     11  C       10   1.395410(    10)      9  118.624(    29)      8    0.000(    47)      0
     12     12  C       11   1.406796(    11)     10  121.040(    30)      9    0.000(    48)      0
     13     13  C        8   1.388904(    12)      4  162.008(    31)      3 -179.999(    49)      0
     14     14  H       10   1.085949(    13)      9  120.825(    32)      8 -180.000(    50)      0
     15     15  H       12   1.085794(    14)     11  119.435(    33)     10  180.000(    51)      0
     16     16  H        6   1.085747(    15)      5  119.242(    34)      4 -180.000(    52)      0
     17     17  H        5   1.084550(    16)      4  121.295(    35)      3  179.999(    53)      0
     18     18  H       13   1.084578(    17)      8  121.259(    36)      4   -0.001(    54)      0
     19     19  H        1   1.085730(    18)      2  119.587(    37)      3 -180.000(    55)      0
     20     20  H       11   1.085689(    19)     10  119.601(    38)      9 -180.000(    56)      0
     21     21  O        4   1.378011(    20)      3  111.561(    39)      2 -180.000(    57)      0
 ---------------------------------------------------------------------------------------------------
                         Z-Matrix orientation:                         
 ---------------------------------------------------------------------
 Center     Atomic      Atomic             Coordinates (Angstroms)
 Number     Number       Type             X           Y           Z
 ---------------------------------------------------------------------
      1          6           0        0.000000    0.000000    0.000000
      2          6           0        0.000000    0.000000    1.395462
      3          6           0        1.229856    0.000000    2.066445
      4          6           0        2.418890    0.000000    1.311636
      5          6           0        2.443293    0.000000   -0.076918
      6          6           0        1.205107    0.000000   -0.725615
      7          1           0       -0.935130    0.000000    1.947498
      8          6           0        2.974191    0.000000    3.128678
      9          6           0        1.566187    0.000000    3.167616
     10          6           0        0.921635    0.000008    4.411403
     11          6           0        1.701582    0.000016    5.568490
     12          6           0        3.106524    0.000015    5.496284
     13          6           0        3.770551    0.000005    4.266600
     14          1           0       -0.162367    0.000003    4.476392
     15          1           0        3.687954    0.000028    6.413284
     16          1           0        1.174949   -0.000005   -1.810943
     17          1           0        3.379805    0.000013   -0.623905
     18          1           0        4.852835   -0.000006    4.196111
     19          1           0       -0.944160    0.000000   -0.536070
     20          1           0        1.218569    0.000022    6.540817
     21          8           0        3.533285    0.000000    2.122214
 ---------------------------------------------------------------------
                    Distance matrix (angstroms):
                    1          2          3          4          5
     1  C    0.000000
     2  C    1.395462   0.000000
     3  C    2.404733   1.400987   0.000000
     4  C    2.751621   2.420342   1.408381   0.000000
     5  C    2.444503   2.852645   2.463013   1.388768   0.000000
     6  C    1.406698   2.439518   2.792170   2.371426   1.397824
     7  H    2.160375   1.085916   2.168251   3.413762   3.938528
     8  C    4.316762   3.442361   2.042313   1.900000   3.249261
     9  C    3.533657   2.365052   1.151389   2.042490   3.360999
    10  C    4.506649   3.153619   2.365128   3.442431   4.739248
    11  C    5.822668   4.506612   3.533673   4.316867   5.693924
    12  C    6.313448   5.144631   3.909690   4.240769   5.612527
    13  C    5.693938   4.739250   3.360924   3.249430   4.541779
    14  H    4.479335   3.085205   2.783187   4.083940   5.246150
    15  H    7.398055   6.227322   4.993721   5.257122   6.608472
    16  H    2.158708   3.414899   3.877777   3.361234   2.148381
    17  H    3.436908   3.937121   3.443873   2.160944   1.084550
    18  H    6.415400   5.603003   4.202553   3.774160   4.905575
    19  H    1.085730   2.149942   3.391081   3.837202   3.418429
    20  H    6.653360   5.287683   4.474386   5.365175   6.730109
    21  O    4.121638   3.607253   2.304104   1.378011   2.454438
                    6          7          8          9         10
     6  C    0.000000
     7  H    3.424347   0.000000
     8  C    4.240900   4.083868   0.000000
     9  C    3.909940   2.783033   1.408543   0.000000
    10  C    5.144833   3.085191   2.420407   1.400876   0.000000
    11  C    6.313656   4.479267   2.751767   2.404689   1.395410
    12  C    6.505952   5.378554   2.371302   2.792012   2.439407
    13  C    5.612817   5.246109   1.388904   2.463125   2.852593
    14  H    5.378741   2.644327   3.413844   2.168131   1.085949
    15  H    7.558333   6.427764   3.361264   3.877661   3.414681
    16  H    1.085747   4.310257   5.257103   4.993908   6.227501
    17  H    2.177075   5.023025   3.774440   4.202957   5.603296
    18  H    6.126117   6.209412   2.160721   3.443815   3.937091
    19  H    2.157609   2.483584   5.365058   4.474274   5.287597
    20  H    7.266444   5.073164   3.837304   3.391065   2.150017
    21  O    3.678389   4.471830   1.151328   2.227632   3.472910
                   11         12         13         14         15
    11  C    0.000000
    12  C    1.406796   0.000000
    13  C    2.444494   1.397517   0.000000
    14  H    2.160320   3.424300   3.938509   0.000000
    15  H    2.158553   1.085794   2.148272   4.310049   0.000000
    16  H    7.398202   7.558211   6.608607   6.427985   8.599599
    17  H    6.415777   6.126287   4.906090   6.209671   7.043932
    18  H    3.437125   2.177167   1.084578   5.023028   2.504557
    19  H    6.653240   7.266177   6.730091   5.073063   8.351646
    20  H    1.085689   2.157643   3.418285   2.483714   2.472676
    21  O    3.902815   3.400952   2.157472   4.381781   4.293857
                   16         17         18         19         20
    16  H    0.000000
    17  H    2.504087   0.000000
    18  H    7.043546   5.040076   0.000000
    19  H    2.473040   4.324857   7.483227   0.000000
    20  H    8.351874   7.483594   4.324990   7.399981   0.000000
    21  O    4.586009   2.750404   2.458101   5.207109   4.988183
                   21
    21  O    0.000000
 Symmetry turned off by external request.
 Stoichiometry    C12H8O
 Framework group  C1[X(C12H8O)]
 Deg. of freedom    57
 Full point group                 C1      NOp   1
 Rotational constants (GHZ):           2.2771144           0.6720640           0.5189129
 Standard basis: 6-31++G(d,p) (6D, 7F)
   295 basis functions,   480 primitive gaussians,   295 cartesian basis functions
    44 alpha electrons       44 beta electrons
       nuclear repulsion energy       729.1311518658 Hartrees.
 NAtoms=   21 NActive=   21 NUniq=   21 SFac= 1.00D+00 NAtFMM=   60 NAOKFM=F Big=F
 Integral buffers will be    131072 words long.
 Raffenetti 2 integral format.
 Two-electron integral symmetry is turned off.
 One-electron integrals computed using PRISM.
 NBasis=   295 RedAO= T EigKep=  3.66D-06  NBF=   295
 NBsUse=   290 1.00D-06 EigRej=  9.28D-07 NBFU=   290
 Initial guess from the checkpoint file:  "C:\Users\Administrator\Desktop\dataset_dft\C12H8O1\C12H8O1.chk"
 B after Tr=     0.019436    0.000000    0.086589
         Rot=    1.000000    0.000000   -0.000618    0.000000 Ang=  -0.07 deg.
 ExpMin= 3.60D-02 ExpMax= 5.48D+03 ExpMxC= 8.25D+02 IAcc=3 IRadAn=         5 AccDes= 0.00D+00
 Harris functional with IExCor=  402 and IRadAn=       5 diagonalized for initial guess.
 HarFok:  IExCor=  402 AccDes= 0.00D+00 IRadAn=         5 IDoV= 1 UseB2=F ITyADJ=14
 ICtDFT=  3500011 ScaDFX=  1.000000  1.000000  1.000000  1.000000
 FoFCou: FMM=F IPFlag=           0 FMFlag=      100000 FMFlg1=           0
         NFxFlg=           0 DoJE=T BraDBF=F KetDBF=T FulRan=T
         wScrn=  0.000000 ICntrl=       500 IOpCl=  0 I1Cent=   200000004 NGrid=           0
         NMat0=    1 NMatS0=      1 NMatT0=    0 NMatD0=    1 NMtDS0=    0 NMtDT0=    0
 Symmetry not used in FoFCou.
 Requested convergence on RMS density matrix=1.00D-08 within 128 cycles.
 Requested convergence on MAX density matrix=1.00D-06.
 Requested convergence on             energy=1.00D-06.
 No special actions if energy rises.
 SCF Done:  E(RB3LYP) =  -537.177689197     A.U. after   14 cycles
            NFock= 14  Conv=0.37D-08     -V/T= 2.0055
 Variable Step   Value    
 -------- ---- -----------
     7       5    3.779452
 ---------------------------------------------------------------------------------------------------
                            Z-MATRIX (ANGSTROMS AND DEGREES)
   CD    Cent   Atom    N1       Length/X        N2       Alpha/Y        N3        Beta/Z          J
 ---------------------------------------------------------------------------------------------------
      1      1  C 
      2      2  C        1   1.395462(     1)
      3      3  C        2   1.400987(     2)      1  118.616(    21)
      4      4  C        3   1.408381(     3)      2  118.976(    22)      1    0.000(    40)      0
      5      5  C        4   1.388768(     4)      3  123.415(    23)      2    0.000(    41)      0
      6      6  C        5   1.397824(     5)      4  116.644(    24)      3    0.000(    42)      0
      7      7  H        2   1.085916(     6)      1  120.555(    25)      6  180.000(    43)      0
      8      8  C        4   2.000000(     7)      3   74.586(    26)      2 -180.000(    44)      0
      9      9  C        8   1.408543(     8)      4   74.591(    27)      3    0.000(    45)      0
     10     10  C        9   1.400876(     9)      8  118.978(    28)      4 -180.000(    46)      0
     11     11  C       10   1.395410(    10)      9  118.624(    29)      8    0.000(    47)      0
     12     12  C       11   1.406796(    11)     10  121.040(    30)      9    0.000(    48)      0
     13     13  C        8   1.388904(    12)      4  162.008(    31)      3 -179.999(    49)      0
     14     14  H       10   1.085949(    13)      9  120.825(    32)      8 -180.000(    50)      0
     15     15  H       12   1.085794(    14)     11  119.435(    33)     10  180.000(    51)      0
     16     16  H        6   1.085747(    15)      5  119.242(    34)      4 -180.000(    52)      0
     17     17  H        5   1.084550(    16)      4  121.295(    35)      3  179.999(    53)      0
     18     18  H       13   1.084578(    17)      8  121.259(    36)      4   -0.001(    54)      0
     19     19  H        1   1.085730(    18)      2  119.587(    37)      3 -180.000(    55)      0
     20     20  H       11   1.085689(    19)     10  119.601(    38)      9 -180.000(    56)      0
     21     21  O        4   1.378011(    20)      3  111.561(    39)      2 -180.000(    57)      0
 ---------------------------------------------------------------------------------------------------
                         Z-Matrix orientation:                         
 ---------------------------------------------------------------------
 Center     Atomic      Atomic             Coordinates (Angstroms)
 Number     Number       Type             X           Y           Z
 ---------------------------------------------------------------------
      1          6           0        0.000000    0.000000    0.000000
      2          6           0        0.000000    0.000000    1.395462
      3          6           0        1.229856    0.000000    2.066445
      4          6           0        2.418890    0.000000    1.311636
      5          6           0        2.443293    0.000000   -0.076918
      6          6           0        1.205107    0.000000   -0.725615
      7          1           0       -0.935130    0.000000    1.947498
      8          6           0        3.003417    0.000000    3.224312
      9          6           0        1.595413    0.000000    3.263250
     10          6           0        0.950862    0.000008    4.507037
     11          6           0        1.730808    0.000016    5.664124
     12          6           0        3.135750    0.000015    5.591918
     13          6           0        3.799777    0.000005    4.362234
     14          1           0       -0.133141    0.000003    4.572026
     15          1           0        3.717180    0.000028    6.508918
     16          1           0        1.174949   -0.000005   -1.810943
     17          1           0        3.379805    0.000013   -0.623905
     18          1           0        4.882062   -0.000006    4.291744
     19          1           0       -0.944160    0.000000   -0.536070
     20          1           0        1.247795    0.000022    6.636451
     21          8           0        3.533285    0.000000    2.122214
 ---------------------------------------------------------------------
                    Distance matrix (angstroms):
                    1          2          3          4          5
     1  C    0.000000
     2  C    1.395462   0.000000
     3  C    2.404733   1.400987   0.000000
     4  C    2.751621   2.420342   1.408381   0.000000
     5  C    2.444503   2.852645   2.463013   1.388768   0.000000
     6  C    1.406698   2.439518   2.792170   2.371426   1.397824
     7  H    2.160375   1.085916   2.168251   3.413762   3.938528
     8  C    4.406439   3.516420   2.118059   2.000000   3.348411
     9  C    3.632374   2.456415   1.251389   2.118233   3.446102
    10  C    4.606248   3.253619   2.456487   3.516489   4.820788
    11  C    5.922668   4.606211   3.632389   4.406542   5.785084
    12  C    6.411121   5.238623   4.007666   4.339896   5.710972
    13  C    5.785100   4.820793   3.446032   3.348581   4.641779
    14  H    4.573964   3.179353   2.852314   4.140411   5.315138
    15  H    7.495561   6.321777   5.091399   5.356985   6.707907
    16  H    2.158708   3.414899   3.877777   3.361234   2.148381
    17  H    3.436908   3.937121   3.443873   2.160944   1.084550
    18  H    6.500277   5.676529   4.276747   3.866298   5.003279
    19  H    1.085730   2.149942   3.391081   3.837202   3.418429
    20  H    6.752738   5.387482   4.570041   5.452074   6.818983
    21  O    4.121638   3.607253   2.304104   1.378011   2.454438
                    6          7          8          9         10
     6  C    0.000000
     7  H    3.424347   0.000000
     8  C    4.340028   4.140339   0.000000
     9  C    4.007915   2.852166   1.408543   0.000000
    10  C    5.238825   3.179340   2.420407   1.400876   0.000000
    11  C    6.411328   4.573897   2.751767   2.404689   1.395410
    12  C    6.605952   5.463868   2.371302   2.792012   2.439407
    13  C    5.711262   5.315100   1.388904   2.463125   2.852593
    14  H    5.464055   2.744327   3.413844   2.168131   1.085949
    15  H    7.658262   6.515408   3.361264   3.877661   3.414681
    16  H    1.085747   4.310257   5.356966   5.091584   6.321953
    17  H    2.177075   5.023025   3.866580   4.277152   5.676824
    18  H    6.220441   6.271779   2.160721   3.443815   3.937091
    19  H    2.157609   2.483584   5.451957   4.569930   5.387395
    20  H    7.362189   5.172179   3.837304   3.391065   2.150017
    21  O    3.678389   4.471830   1.222857   2.248847   3.515152
                   11         12         13         14         15
    11  C    0.000000
    12  C    1.406796   0.000000
    13  C    2.444494   1.397517   0.000000
    14  H    2.160320   3.424300   3.938509   0.000000
    15  H    2.158553   1.085794   2.148272   4.310049   0.000000
    16  H    7.495706   7.658139   6.708043   6.515627   8.699599
    17  H    6.500654   6.220612   5.003794   6.272040   7.140797
    18  H    3.437125   2.177167   1.084578   5.023028   2.504557
    19  H    6.752619   7.361922   6.818967   5.172078   8.447481
    20  H    1.085689   2.157643   3.418285   2.483714   2.472676
    21  O    3.974174   3.492403   2.255816   4.409564   4.390557
                   16         17         18         19         20
    16  H    0.000000
    17  H    2.504087   0.000000
    18  H    7.140412   5.140076   0.000000
    19  H    2.473040   4.324857   7.566548   0.000000
    20  H    8.447708   7.566917   4.324990   7.499981   0.000000
    21  O    4.586009   2.750404   2.554616   5.207109   5.059822
                   21
    21  O    0.000000
[...]
      7          1           0       -0.935130    0.000000    1.947498
      8          6           0        3.412587    0.000000    4.563184
      9          6           0        2.004582    0.000000    4.602123
     10          6           0        1.360031    0.000008    5.845910
     11          6           0        2.139977    0.000016    7.002997
     12          6           0        3.544919    0.000015    6.930791
     13          6           0        4.208946    0.000005    5.701106
     14          1           0        0.276029    0.000003    5.910898
     15          1           0        4.126349    0.000028    7.847790
     16          1           0        1.174949   -0.000005   -1.810943
     17          1           0        3.379805    0.000013   -0.623905
     18          1           0        5.291231   -0.000006    5.630617
     19          1           0       -0.944160    0.000000   -0.536070
     20          1           0        1.656964    0.000022    7.975324
     21          8           0        3.533285    0.000000    2.122214
 ---------------------------------------------------------------------
                    Distance matrix (angstroms):
                    1          2          3          4          5
     1  C    0.000000
     2  C    1.395462   0.000000
     3  C    2.404733   1.400987   0.000000
     4  C    2.751621   2.420342   1.408381   0.000000
     5  C    2.444503   2.852645   2.463013   1.388768   0.000000
     6  C    1.406698   2.439518   2.792170   2.371426   1.397824
     7  H    2.160375   1.085916   2.168251   3.413762   3.938528
     8  C    5.698105   4.656202   3.316326   3.400000   4.740262
     9  C    5.019749   3.781670   2.651389   3.316467   4.699563
    10  C    6.002028   4.653619   3.781706   4.656267   6.021075
    11  C    7.322668   6.001996   5.019748   5.698191   7.086409
    12  C    7.784749   6.573151   5.387149   5.730867   7.093769
    13  C    7.086455   6.021113   4.699547   4.740438   6.041779
    14  H    5.917340   4.523866   3.961011   5.073960   6.367965
    15  H    8.866486   7.658936   6.466346   6.755496   8.101462
    16  H    2.158708   3.414899   3.877777   3.361234   2.148381
    17  H    3.436908   3.937121   3.443873   2.160944   1.084550
    18  H    7.726641   6.777438   5.403526   5.186901   6.378614
    19  H    1.085730   2.149942   3.391081   3.837202   3.418429
    20  H    8.145632   6.785286   5.924295   6.707105   8.090544
    21  O    4.121638   3.607253   2.304104   1.378011   2.454438
                    6          7          8          9         10
     6  C    0.000000
     7  H    3.424347   0.000000
     8  C    5.731000   5.073899   0.000000
     9  C    5.387388   3.960927   1.408543   0.000000
    10  C    6.573351   4.523867   2.420407   1.400876   0.000000
    11  C    7.784949   5.917293   2.751767   2.404689   1.395410
    12  C    8.005952   6.701048   2.371302   2.792012   2.439407
    13  C    7.094068   6.367974   1.388904   2.463125   2.852593
    14  H    6.701231   4.144327   3.413844   2.168131   1.085949
    15  H    9.057424   7.773804   3.361264   3.877661   3.414681
    16  H    1.085747   4.310257   6.755481   6.466507   7.659090
    17  H    2.177075   5.023025   5.187193   5.403943   6.777757
    18  H    7.556328   7.234151   2.160721   3.443815   3.937091
    19  H    2.157609   2.483584   6.706984   5.924196   6.785201
    20  H    8.712664   6.561526   3.837304   3.391065   2.150017
    21  O    3.678389   4.471830   2.443953   2.913225   4.311490
                   11         12         13         14         15
    11  C    0.000000
    12  C    1.406796   0.000000
    13  C    2.444494   1.397517   0.000000
    14  H    2.160320   3.424300   3.938509   0.000000
    15  H    2.158553   1.085794   2.148272   4.310049   0.000000
    16  H    8.866613   9.057299   8.101607   7.773989  10.099599
    17  H    7.727018   7.556500   6.379126   7.234437   8.504525
    18  H    3.437125   2.177167   1.084578   5.023028   2.504557
    19  H    8.145516   8.712395   8.090542   6.561422   9.797917
    20  H    1.085689   2.157643   3.418285   2.483714   2.472676
    21  O    5.075762   4.808591   3.642114   4.996384   5.756210
                   16         17         18         19         20
    16  H    0.000000
    17  H    2.504087   0.000000
    18  H    8.504152   6.540076   0.000000
    19  H    2.473040   4.324857   8.769728   0.000000
    20  H    9.798130   8.770115   4.324990   8.899981   0.000000
    21  O    4.586009   2.750404   3.924190   5.207109   6.146501
                   21
    21  O    0.000000
 Symmetry turned off by external request.
 Stoichiometry    C12H8O
 Framework group  C1[X(C12H8O)]
 Deg. of freedom    57
 Full point group                 C1      NOp   1
 Rotational constants (GHZ):           2.2791642           0.3906335           0.3334776
 Standard basis: 6-31++G(d,p) (6D, 7F)
   295 basis functions,   480 primitive gaussians,   295 cartesian basis functions
    44 alpha electrons       44 beta electrons
       nuclear repulsion energy       636.1614907663 Hartrees.
 NAtoms=   21 NActive=   21 NUniq=   21 SFac= 1.00D+00 NAtFMM=   60 NAOKFM=F Big=F
 Integral buffers will be    131072 words long.
 Raffenetti 2 integral format.
 Two-electron integral symmetry is turned off.
 One-electron integrals computed using PRISM.
 NBasis=   295 RedAO= T EigKep=  1.09D-06  NBF=   295
 NBsUse=   294 1.00D-06 EigRej=  3.71D-07 NBFU=   294
 Initial guess from the checkpoint file:  "C:\Users\Administrator\Desktop\dataset_dft\C12H8O1\C12H8O1.chk"
 B after Tr=     0.020428    0.000000    0.085338
         Rot=    1.000000    0.000000   -0.000402    0.000000 Ang=  -0.05 deg.
 ExpMin= 3.60D-02 ExpMax= 5.48D+03 ExpMxC= 8.25D+02 IAcc=3 IRadAn=         5 AccDes= 0.00D+00
 Harris functional with IExCor=  402 and IRadAn=       5 diagonalized for initial guess.
 HarFok:  IExCor=  402 AccDes= 0.00D+00 IRadAn=         5 IDoV= 1 UseB2=F ITyADJ=14
 ICtDFT=  3500011 ScaDFX=  1.000000  1.000000  1.000000  1.000000
 FoFCou: FMM=F IPFlag=           0 FMFlag=      100000 FMFlg1=           0
         NFxFlg=           0 DoJE=T BraDBF=F KetDBF=T FulRan=T
         wScrn=  0.000000 ICntrl=       500 IOpCl=  0 I1Cent=   200000004 NGrid=           0
         NMat0=    1 NMatS0=      1 NMatT0=    0 NMatD0=    1 NMtDS0=    0 NMtDT0=    0
 Symmetry not used in FoFCou.
 Requested convergence on RMS density matrix=1.00D-08 within 128 cycles.
 Requested convergence on MAX density matrix=1.00D-06.
 Requested convergence on             energy=1.00D-06.
 No special actions if energy rises.
 SCF Done:  E(RB3LYP) =  -537.036151636     A.U. after   15 cycles
            NFock= 15  Conv=0.74D-08     -V/T= 2.0112
 Variable Step   Value    
 -------- ---- -----------
     7      20    6.614041
 ---------------------------------------------------------------------------------------------------
                            Z-MATRIX (ANGSTROMS AND DEGREES)
   CD    Cent   Atom    N1       Length/X        N2       Alpha/Y        N3        Beta/Z          J
 ---------------------------------------------------------------------------------------------------
      1      1  C 
      2      2  C        1   1.395462(     1)
      3      3  C        2   1.400987(     2)      1  118.616(    21)
      4      4  C        3   1.408381(     3)      2  118.976(    22)      1    0.000(    40)      0
      5      5  C        4   1.388768(     4)      3  123.415(    23)      2    0.000(    41)      0
      6      6  C        5   1.397824(     5)      4  116.644(    24)      3    0.000(    42)      0
      7      7  H        2   1.085916(     6)      1  120.555(    25)      6  180.000(    43)      0
      8      8  C        4   3.500000(     7)      3   74.586(    26)      2 -180.000(    44)      0
      9      9  C        8   1.408543(     8)      4   74.591(    27)      3    0.000(    45)      0
     10     10  C        9   1.400876(     9)      8  118.978(    28)      4 -180.000(    46)      0
     11     11  C       10   1.395410(    10)      9  118.624(    29)      8    0.000(    47)      0
     12     12  C       11   1.406796(    11)     10  121.040(    30)      9    0.000(    48)      0
     13     13  C        8   1.388904(    12)      4  162.008(    31)      3 -179.999(    49)      0
     14     14  H       10   1.085949(    13)      9  120.825(    32)      8 -180.000(    50)      0
     15     15  H       12   1.085794(    14)     11  119.435(    33)     10  180.000(    51)      0
     16     16  H        6   1.085747(    15)      5  119.242(    34)      4 -180.000(    52)      0
     17     17  H        5   1.084550(    16)      4  121.295(    35)      3  179.999(    53)      0
     18     18  H       13   1.084578(    17)      8  121.259(    36)      4   -0.001(    54)      0
     19     19  H        1   1.085730(    18)      2  119.587(    37)      3 -180.000(    55)      0
     20     20  H       11   1.085689(    19)     10  119.601(    38)      9 -180.000(    56)      0
     21     21  O        4   1.378011(    20)      3  111.561(    39)      2 -180.000(    57)      0
 ---------------------------------------------------------------------------------------------------
                         Z-Matrix orientation:                         
 ---------------------------------------------------------------------
 Center     Atomic      Atomic             Coordinates (Angstroms)
 Number     Number       Type             X           Y           Z
 ---------------------------------------------------------------------
      1          6           0        0.000000    0.000000    0.000000
      2          6           0        0.000000    0.000000    1.395462
      3          6           0        1.229856    0.000000    2.066445
      4          6           0        2.418890    0.000000    1.311636
      5          6           0        2.443293    0.000000   -0.076918
      6          6           0        1.205107    0.000000   -0.725615
      7          1           0       -0.935130    0.000000    1.947498
      8          6           0        3.441813    0.000000    4.658818
      9          6           0        2.033809    0.000000    4.697757
     10          6           0        1.389257    0.000008    5.941543
     11          6           0        2.169204    0.000016    7.098631
     12          6           0        3.574146    0.000015    7.026424
     13          6           0        4.238173    0.000005    5.796740
     14          1           0        0.305255    0.000003    6.006532
     15          1           0        4.155576    0.000028    7.943424
     16          1           0        1.174949   -0.000005   -1.810943
     17          1           0        3.379805    0.000013   -0.623905
     18          1           0        5.320457   -0.000006    5.726251
     19          1           0       -0.944160    0.000000   -0.536070
     20          1           0        1.686191    0.000022    8.070957
     21          8           0        3.533285    0.000000    2.122214
 ---------------------------------------------------------------------
                    Distance matrix (angstroms):
                    1          2          3          4          5
     1  C    0.000000
     2  C    1.395462   0.000000
     3  C    2.404733   1.400987   0.000000
     4  C    2.751621   2.420342   1.408381   0.000000
     5  C    2.444503   2.852645   2.463013   1.388768   0.000000
     6  C    1.406698   2.439518   2.792170   2.371426   1.397824
     7  H    2.160375   1.085916   2.168251   3.413762   3.938528
     8  C    5.792294   4.742950   3.407808   3.500000   4.839859
     9  C    5.119111   3.878341   2.751389   3.407947   4.792201
    10  C    6.101801   4.753619   3.878376   4.743015   6.110063
    11  C    7.422668   6.101769   5.119108   5.792379   7.180782
    12  C    7.883220   6.669502   5.486081   5.830388   7.192795
    13  C    7.180829   6.110103   4.792189   4.840036   6.141779
    14  H    6.014284   4.621163   4.047119   5.148738   6.448222
    15  H    8.964753   7.755296   6.564962   6.855413   8.201085
    16  H    2.158708   3.414899   3.877777   3.361234   2.148381
    17  H    3.436908   3.937121   3.443873   2.160944   1.084550
    18  H    7.816471   6.860248   5.488825   5.282795   6.477256
    19  H    1.085730   2.149942   3.391081   3.837202   3.418429
    20  H    8.245216   6.885164   6.021828   6.798917   8.182975
    21  O    4.121638   3.607253   2.304104   1.378011   2.454438
                    6          7          8          9         10
     6  C    0.000000
     7  H    3.424347   0.000000
     8  C    5.830521   5.148678   0.000000
     9  C    5.486320   4.047038   1.408543   0.000000
    10  C    6.669701   4.621166   2.420407   1.400876   0.000000
    11  C    7.883420   6.014238   2.751767   2.404689   1.395410
    12  C    8.105952   6.791838   2.371302   2.792012   2.439407
    13  C    7.193094   6.448234   1.388904   2.463125   2.852593
    14  H    6.792020   4.244327   3.413844   2.168131   1.085949
    15  H    9.157374   7.865521   3.361264   3.877661   3.414681
    16  H    1.085747   4.310257   6.855398   6.565121   7.755448
    17  H    2.177075   5.023025   5.283087   5.489243   6.860568
    18  H    7.652626   7.308307   2.160721   3.443815   3.937091
    19  H    2.157609   2.483584   6.798795   6.021730   6.885079
    20  H    8.809718   6.660936   3.837304   3.391065   2.150017
    21  O    3.678389   4.471830   2.538253   2.980244   4.379970
                   11         12         13         14         15
    11  C    0.000000
    12  C    1.406796   0.000000
    13  C    2.444494   1.397517   0.000000
    14  H    2.160320   3.424300   3.938509   0.000000
    15  H    2.158553   1.085794   2.148272   4.310049   0.000000
    16  H    8.964879   9.157249   8.201231   7.865703  10.199599
    17  H    7.816848   7.652797   6.477768   7.308595   8.602380
    18  H    3.437125   2.177167   1.084578   5.023028   2.504557
    19  H    8.245101   8.809450   8.182973   6.660831   9.894904
    20  H    1.085689   2.157643   3.418285   2.483714   2.472676
    21  O    5.159985   4.904381   3.741525   5.050555   5.854378
                   16         17         18         19         20
    16  H    0.000000
    17  H    2.504087   0.000000
    18  H    8.602008   6.640076   0.000000
    19  H    2.473040   4.324857   8.857883   0.000000
    20  H    9.895116   8.858271   4.324990   8.999981   0.000000
    21  O    4.586009   2.750404   4.022819   5.207109   6.228909
                   21
    21  O    0.000000
 Symmetry turned off by external request.
 Stoichiometry    C12H8O
 Framework group  C1[X(C12H8O)]
 Deg. of freedom    57
 Full point group                 C1      NOp   1
 Rotational constants (GHZ):           2.2794664           0.3781257           0.3243255
 Standard basis: 6-31++G(d,p) (6D, 7F)
   295 basis functions,   480 primitive gaussians,   295 cartesian basis functions
    44 alpha electrons       44 beta electrons
       nuclear repulsion energy       632.0635943646 Hartrees.
 NAtoms=   21 NActive=   21 NUniq=   21 SFac= 1.00D+00 NAtFMM=   60 NAOKFM=F Big=F
 Integral buffers will be    131072 words long.
 Raffenetti 2 integral format.
 Two-electron integral symmetry is turned off.
 One-electron integrals computed using PRISM.
 NBasis=   295 RedAO= T EigKep=  1.15D-06  NBF=   295
 NBsUse=   294 1.00D-06 EigRej=  4.10D-07 NBFU=   294
 Initial guess from the checkpoint file:  "C:\Users\Administrator\Desktop\dataset_dft\C12H8O1\C12H8O1.chk"
 B after Tr=     0.020489    0.000000    0.085272
         Rot=    1.000000    0.000000   -0.000391    0.000000 Ang=  -0.04 deg.
 ExpMin= 3.60D-02 ExpMax= 5.48D+03 ExpMxC= 8.25D+02 IAcc=3 IRadAn=         5 AccDes= 0.00D+00
 Harris functional with IExCor=  402 and IRadAn=       5 diagonalized for initial guess.
 HarFok:  IExCor=  402 AccDes= 0.00D+00 IRadAn=         5 IDoV= 1 UseB2=F ITyADJ=14
 ICtDFT=  3500011 ScaDFX=  1.000000  1.000000  1.000000  1.000000
 FoFCou: FMM=F IPFlag=           0 FMFlag=      100000 FMFlg1=           0
         NFxFlg=           0 DoJE=T BraDBF=F KetDBF=T FulRan=T
         wScrn=  0.000000 ICntrl=       500 IOpCl=  0 I1Cent=   200000004 NGrid=           0
         NMat0=    1 NMatS0=      1 NMatT0=    0 NMatD0=    1 NMtDS0=    0 NMtDT0=    0
 Symmetry not used in FoFCou.
 Requested convergence on RMS density matrix=1.00D-08 within 128 cycles.
 Requested convergence on MAX density matrix=1.00D-06.
 Requested convergence on             energy=1.00D-06.
 No special actions if energy rises.
 EnCoef did     1 forward-backward iterations
 SCF Done:  E(RB3LYP) =  -537.020206914     A.U. after   15 cycles
            NFock= 15  Conv=0.86D-08     -V/T= 2.0111
 Scan completed.
 
 Summary of the potential surface scan:
   N      B7          SCF    
 ----  ---------  -----------
    1     1.5000   -535.15047
    2     1.6000   -536.05031
    3     1.7000   -536.61832
    4     1.8000   -536.96937
    5     1.9000   -537.17769
    6     2.0000   -537.29218
    7     2.1000   -537.34560
    8     2.2000   -537.36007
    9     2.3000   -537.35043
   10     2.4000   -537.32658
   11     2.5000   -537.29504
   12     2.6000   -537.26008
   13     2.7000   -537.22447
   14     2.8000   -537.18984
   15     2.9000   -537.15728
   16     3.0000   -537.12729
   17     3.1000   -537.10016
   18     3.2000   -537.07596
   19     3.3000   -537.05469
   20     3.4000   -537.03615
   21     3.5000   -537.02021
 ----  ---------  -----------
  
 1|1|UNPC-BF-202112021916|Scan|RB3LYP|6-31++G(d,p)|C12H8O1|ADMINISTRATO
 R|24-Mar-2023|1||# scan b3lyp/6-31++g(d,p) nosymm||Title Card Required
 ||0,1|C|C,1,B1|C,2,B2,1,A1|C,3,B3,2,A2,1,D1,0|C,4,B4,3,A3,2,D2,0|C,5,B
 5,4,A4,3,D3,0|H,2,B6,1,A5,6,D4,0|C,4,B7,3,A6,2,D5,0|C,8,B8,4,A7,3,D6,0
 |C,9,B9,8,A8,4,D7,0|C,10,B10,9,A9,8,D8,0|C,11,B11,10,A10,9,D9,0|C,8,B1
 2,4,A11,3,D10,0|H,10,B13,9,A12,8,D11,0|H,12,B14,11,A13,10,D12,0|H,6,B1
 5,5,A14,4,D13,0|H,5,B16,4,A15,3,D14,0|H,13,B17,8,A16,4,D15,0|H,1,B18,2
 ,A17,3,D16,0|H,11,B19,10,A18,9,D17,0|O,4,B20,3,A19,2,D18,0||B1=1.39546
 175|B2=1.4009869|B3=1.40838148|B4=1.38876849|B5=1.39782425|B6=1.085915
 68|B7=1.5,s,20,0.1|B8=1.4085427|B9=1.40087569|B10=1.39540951|B11=1.406
 79644|B12=1.38890433|B13=1.08594859|B14=1.08579438|B15=1.08574728|B16=
 1.08455037|B17=1.08457762|B18=1.08572951|B19=1.08568877|B20=1.37801062
 |A1=118.6159446|A2=118.97632197|A3=123.4145712|A4=116.64361329|A5=120.
 55468507|A6=74.58580095|A7=74.59057916|A8=118.97807303|A9=118.62370225
 |A10=121.04022978|A11=162.00779992|A12=120.82487867|A13=119.43491474|A
 14=119.24212209|A15=121.2946864|A16=121.25932549|A17=119.58679151|A18=
 119.60131068|A19=111.56125541|D1=0.|D2=0.|D3=0.|D4=180.|D5=-180.|D6=0.
 |D7=-179.99963025|D8=0.|D9=0.|D10=-179.9993677|D11=-179.99969878|D12=1
 79.99961533|D13=-179.99968911|D14=179.99919593|D15=-0.00141096|D16=-18
 0.|D17=-180.|D18=-180.||Version=EM64W-G16RevA.03|HF=-535.1504673,-536.
 0503125,-536.6183205,-536.9693741,-537.1776892,-537.2921827,-537.34559
 79,-537.3600677,-537.3504333,-537.3265829,-537.2950446,-537.260078,-53
 7.2244693,-537.189839,-537.1572797,-537.1272876,-537.1001558,-537.0759
 593,-537.0546883,-537.0361516,-537.0202069|RMSD=4.895e-009,5.438e-009,
 7.311e-009,6.957e-009,3.652e-009,2.600e-009,5.125e-009,3.709e-009,3.84
 3e-009,3.678e-009,3.703e-009,3.898e-009,4.984e-009,3.237e-009,4.775e-0
 09,6.503e-009,7.592e-009,9.169e-009,6.785e-009,7.416e-009,8.628e-009|P
 G=C01 [X(C12H8O1)]||@


 ... THE UNIVERSE IS NOT ONLY QUEERER THAN WE SUPPOSE,
 BUT QUEERER THAN WE CAN SUPPOSE ... 

                                   -- J. B. S. HALDANE
 Job cpu time:       0 days  0 hours 19 minutes 52.0 seconds.
 Elapsed time:       0 days  0 hours 19 minutes 24.8 seconds.
 File lengths (MBytes):  RWF=     69 Int=      0 D2E=      0 Chk=     10 Scr=      1
 Normal termination of Gaussian 16 at Fri Mar 24 14:34:04 2023.
