 Entering Link 1 = I:\G16W\l1.exe PID=     14572.
  
 Copyright (c) 1988,1990,1992,1993,1995,1998,2003,2009,2016,
            Gaussian, Inc.  All Rights Reserved.
  
 This is part of the Gaussian(R) 16 program.  It is based on
 the Gaussian(R) 09 system (copyright 2009, Gaussian, Inc.),
 the Gaussian(R) 03 system (copyright 2003, Gaussian, Inc.),
 the Gaussian(R) 98 system (copyright 1998, Gaussian, Inc.),
 the Gaussian(R) 94 system (copyright 1995, Gaussian, Inc.),
 the Gaussian 92(TM) system (copyright 1992, Gaussian, Inc.),
 the Gaussian 90(TM) system (copyright 1990, Gaussian, Inc.),
 the Gaussian 88(TM) system (copyright 1988, Gaussian, Inc.),
 the Gaussian 86(TM) system (copyright 1986, Carnegie Mellon
 University), and the Gaussian 82(TM) system (copyright 1983,
 Carnegie Mellon University). Gaussian is a federally registered
 trademark of Gaussian, Inc.
  
 This software contains proprietary and confidential information,
 including trade secrets, belonging to Gaussian, Inc.
  
 This software is provided under written license and may be
 used, copied, transmitted, or stored only in accord with that
 written license.
  
 The following legend is applicable only to US Government
 contracts under FAR:
  
                    RESTRICTED RIGHTS LEGEND
  
 Use, reproduction and disclosure by the US Government is
 subject to restrictions as set forth in subparagraphs (a)
 and (c) of the Commercial Computer Software - Restricted
 Rights clause in FAR 52.227-19.
  
 Gaussian, Inc.
 340 Quinnipiac St., Bldg. 40, Wallingford CT 06492
  
  
 ---------------------------------------------------------------
 Warning -- This program may not be used in any manner that
 competes with the business of Gaussian, Inc. or will provide
 assistance to any competitor of Gaussian, Inc.  The licensee
 of this program is prohibited from giving any competitor of
 Gaussian, Inc. access to this program.  By using this program,
 the user acknowledges that Gaussian, Inc. is engaged in the
 business of creating and licensing software in the field of
 computational chemistry and represents and warrants to the
 licensee that it is not a competitor of Gaussian, Inc. and that
 it will not use this program in any manner prohibited above.
 ---------------------------------------------------------------
  

 Cite this work as:
 Gaussian 16, Revision A.03,
 M. J. Frisch, G. W. Trucks, H. B. Schlegel, G. E. Scuseria, 
 M. A. Robb, J. R. Cheeseman, G. Scalmani, V. Barone, 
 G. A. Petersson, H. Nakatsuji, X. Li, M. Caricato, A. V. Marenich, 
 J. Bloino, B. G. Janesko, R. Gomperts, B. Mennucci, H. P. Hratchian, 
 J. V. Ortiz, A. F. Izmaylov, J. L. Sonnenberg, D. Williams-Young, 
 F. Ding, F. Lipparini, F. Egidi, J. Goings, B. Peng, A. Petrone, 
 T. Henderson, D. Ranasinghe, V. G. Zakrzewski, J. Gao, N. Rega, 
 G. Zheng, W. Liang, M. Hada, M. Ehara, K. Toyota, R. Fukuda, 
 J. Hasegawa, M. Ishida, T. Nakajima, Y. Honda, O. Kitao, H. Nakai, 
 T. Vreven, K. Throssell, J. A. Montgomery, Jr., J. E. Peralta, 
 F. Ogliaro, M. J. Bearpark, J. J. Heyd, E. N. Brothers, K. N. Kudin, 
 V. N. Staroverov, T. A. Keith, R. Kobayashi, J. Normand, 
 K. Raghavachari, A. P. Rendell, J. C. Burant, S. S. Iyengar, 
 J. Tomasi, M. Cossi, J. M. Millam, M. Klene, C. Adamo, R. Cammi, 
 J. W. Ochterski, R. L. Martin, K. Morokuma, O. Farkas, 
 J. B. Foresman, and D. J. Fox, Gaussian, Inc., Wallingford CT, 2016.
 
 ******************************************
 Gaussian 16:  EM64W-G16RevA.03 17-Dec-2016
                19-Mar-2023 
 ******************************************
 %nprocshared=8
 Will use up to    8 processors via shared memory.
 %mem=150MW
 %chk=C:\Users\Administrator\Desktop\dataset_dft\C12H8O1.chk
 --------------------------------
 # scan b3lyp/6-31++g(d,p) nosymm
 --------------------------------
 1/38=1,60=1,172=1/1,8;
 2/12=2,15=1,17=6,18=5,29=3,40=1/2;
 3/5=1,6=6,7=1111,11=2,25=1,30=1,74=-5/1,2,3;
 4//1;
 5/5=2,38=5/2;
 6/7=2,8=2,9=2,10=2,18=1,28=1/1;
 1/60=1/8(1);
 99/9=1/99;
 2/15=1,29=3/2;
 3/5=1,6=6,7=1111,11=2,25=1,30=1,74=-5/1,2,3;
 4/5=5,16=3,69=1/1;
 5/5=2,38=5/2;
 1/60=1/8(-4);
 99/9=1/99;
 -------------------
 Title Card Required
 -------------------
 Symbolic Z-matrix:
 Charge =  0 Multiplicity = 1
 C(PDBName=C,ResName=MOL,ResNum=1)
 C(PDBName=C,ResName=MOL,ResNum=1) 1    B1
 C(PDBName=C,ResName=MOL,ResNum=1) 2    B2       1    A1
 C(PDBName=C,ResName=MOL,ResNum=1) 3    B3       2    A2       1    D1       0
 C(PDBName=C,ResName=MOL,ResNum=1) 4    B4       3    A3       2    D2       0
 C(PDBName=C,ResName=MOL,ResNum=1) 5    B5       4    A4       3    D3       0
 H(PDBName=H,ResName=MOL,ResNum=1) 2    B6       1    A5       6    D4       0
 C(PDBName=C,ResName=MOL,ResNum=1) 4    B7       3    A6       2    D5       0
 C(PDBName=C,ResName=MOL,ResNum=1) 8    B8       4    A7       3    D6       0
 C(PDBName=C,ResName=MOL,ResNum=1) 9    B9       8    A8       4    D7       0
 C(PDBName=C,ResName=MOL,ResNum=1) 10   B10      9    A9       8    D8       0
 C(PDBName=C,ResName=MOL,ResNum=1) 11   B11      10   A10      9    D9       0
 C(PDBName=C,ResName=MOL,ResNum=1) 8    B12      4    A11      3    D10      0
 H(PDBName=H,ResName=MOL,ResNum=1) 10   B13      9    A12      8    D11      0
 H(PDBName=H,ResName=MOL,ResNum=1) 12   B14      11   A13      10   D12      0
 H(PDBName=H,ResName=MOL,ResNum=1) 6    B15      5    A14      4    D13      0
 H(PDBName=H,ResName=MOL,ResNum=1) 5    B16      4    A15      3    D14      0
 H(PDBName=H,ResName=MOL,ResNum=1) 13   B17      8    A16      4    D15      0
 H(PDBName=H,ResName=MOL,ResNum=1) 1    B18      2    A17      3    D16      0
 H(PDBName=H,ResName=MOL,ResNum=1) 11   B19      10   A18      9    D17      0
 O(PDBName=O,ResName=MOL,ResNum=1) 4    B20      3    A19      2    D18      0
       Variables:
  B1                    1.39546                  
  B2                    1.4009                   
  B3                    1.40838                  
  B4                    1.38865                  
  B5                    1.39775                  
  B6                    1.08594                  
  B7                    2.20212                  
  B8                    1.40838                  
  B9                    1.4009                   
  B10                   1.39546                  
  B11                   1.40667                  
  B12                   1.38865                  
  B13                   1.08594                  
  B14                   1.08578                  
  B15                   1.08578                  
  B16                   1.08455                  
  B17                   1.08455                  
  B18                   1.08568                  
  B19                   1.08568                  
  B20                   0.5    Scan 20    0.1    
  A1                  118.61933                  
  A2                  118.98154                  
  A3                  123.41206                  
  A4                  116.63668                  
  A5                  120.56436                  
  A6                   74.57581                  
  A7                   74.57578                  
  A8                  118.98131                  
  A9                  118.61932                  
  A10                 121.03551                  
  A11                 162.01192                  
  A12                 120.81632                  
  A13                 119.45513                  
  A14                 119.22998                  
  A15                 121.29275                  
  A16                 121.29263                  
  A17                 119.60706                  
  A18                 119.60707                  
  A19                 111.54977                  
  D1                   -0.00424                  
  D2                   -0.00137                  
  D3                   -0.00743                  
  D4                 -179.98762                  
  D5                 -179.99881                  
  D6                   -0.00457                  
  D7                 -179.99733                  
  D8                   -0.0135                   
  D9                   -0.01528                  
  D10                 179.9315                   
  D11                 179.99538                  
  D12                -179.97094                  
  D13                 179.99812                  
  D14                -179.98301                  
  D15                   0.07281                  
  D16                 179.99461                  
  D17                -179.98604                  
  D18                 179.99413                  
 
 Center=      1.77629980     -0.00017000      2.62427393
 Residue   1 PDB Number     1_0 MOL charge    0.00000000 layers R        AvRTP=      0.00000000    180.00000000    153.43494882
 Scan the potential surface.
 Variable   Value     No. Steps Step-Size
 -------- ----------- --------- ---------
    20       0.500000      20      0.1000
 A total of     21 points will be computed.
 ---------------------------------------------------------------------------------------------------
                            Z-MATRIX (ANGSTROMS AND DEGREES)
   CD    Cent   Atom    N1       Length/X        N2       Alpha/Y        N3        Beta/Z          J
 ---------------------------------------------------------------------------------------------------
      1      1  C 
      2      2  C        1   1.395457(     1)
      3      3  C        2   1.400897(     2)      1  118.619(    21)
      4      4  C        3   1.408379(     3)      2  118.982(    22)      1   -0.004(    40)      0
      5      5  C        4   1.388650(     4)      3  123.412(    23)      2   -0.001(    41)      0
      6      6  C        5   1.397749(     5)      4  116.637(    24)      3   -0.007(    42)      0
      7      7  H        2   1.085944(     6)      1  120.564(    25)      6 -179.988(    43)      0
      8      8  C        4   2.202117(     7)      3   74.576(    26)      2 -179.999(    44)      0
      9      9  C        8   1.408378(     8)      4   74.576(    27)      3   -0.005(    45)      0
     10     10  C        9   1.400897(     9)      8  118.981(    28)      4 -179.997(    46)      0
     11     11  C       10   1.395458(    10)      9  118.619(    29)      8   -0.013(    47)      0
     12     12  C       11   1.406669(    11)     10  121.036(    30)      9   -0.015(    48)      0
     13     13  C        8   1.388648(    12)      4  162.012(    31)      3  179.931(    49)      0
     14     14  H       10   1.085944(    13)      9  120.816(    32)      8  179.995(    50)      0
     15     15  H       12   1.085779(    14)     11  119.455(    33)     10 -179.971(    51)      0
     16     16  H        6   1.085779(    15)      5  119.230(    34)      4  179.998(    52)      0
     17     17  H        5   1.084547(    16)      4  121.293(    35)      3 -179.983(    53)      0
     18     18  H       13   1.084547(    17)      8  121.293(    36)      4    0.073(    54)      0
     19     19  H        1   1.085682(    18)      2  119.607(    37)      3  179.995(    55)      0
     20     20  H       11   1.085682(    19)     10  119.607(    38)      9 -179.986(    56)      0
     21     21  O        4   0.500000(    20)      3  111.550(    39)      2  179.994(    57)      0
 ---------------------------------------------------------------------------------------------------
                         Z-Matrix orientation:                         
 ---------------------------------------------------------------------
 Center     Atomic      Atomic             Coordinates (Angstroms)
 Number     Number       Type             X           Y           Z
 ---------------------------------------------------------------------
      1          6           0        0.000000    0.000000    0.000000
      2          6           0        0.000000    0.000000    1.395457
      3          6           0        1.229738    0.000000    2.066471
      4          6           0        2.418883   -0.000091    1.311842
      5          6           0        2.443431   -0.000210   -0.076591
      6          6           0        1.205302   -0.000399   -0.725235
      7          1           0       -0.935061    0.000108    1.947666
      8          6           0        3.061798   -0.000021    3.418019
      9          6           0        1.653936    0.000154    3.456132
     10          6           0        1.008579    0.000379    4.699525
     11          6           0        1.787901    0.000132    5.857092
     12          6           0        3.192750   -0.000655    5.785567
     13          6           0        3.857559   -0.000517    4.556046
     14          1           0       -0.075470    0.000594    4.763659
     15          1           0        3.774054   -0.001311    6.702628
     16          1           0        1.175358   -0.000467   -1.810601
     17          1           0        3.380017   -0.000553   -0.623445
     18          1           0        4.939881   -0.000655    4.486618
     19          1           0       -0.943929   -0.000089   -0.536380
     20          1           0        1.304441    0.000070    6.829188
     21          8           0        2.823129   -0.000039    1.606095
 ---------------------------------------------------------------------
                    Distance matrix (angstroms):
                    1          2          3          4          5
     1  C    0.000000
     2  C    1.395457   0.000000
     3  C    2.404694   1.400897   0.000000
     4  C    2.751713   2.420327   1.408379   0.000000
     5  C    2.444632   2.852592   2.462878   1.388650   0.000000
     6  C    1.406670   2.439281   2.791813   2.371172   1.397749
     7  H    2.160496   1.085944   2.168056   3.413680   3.938506
     8  C    4.588841   3.669518   2.276648   2.202117   3.548898
     9  C    3.831494   2.642325   1.452963   2.276647   3.619866
    10  C    4.806534   3.454576   2.642326   3.669517   4.986992
    11  C    6.123897   4.806534   3.831495   4.588838   5.969783
    12  C    6.608059   5.428325   4.205365   4.540164   5.909854
    13  C    5.969784   4.986991   3.619866   3.548895   4.843665
    14  H    4.764256   3.369047   2.996396   4.258736   5.456453
    15  H    7.692120   6.512261   5.288431   5.558513   6.908572
    16  H    2.158644   3.414715   3.877453   3.360953   2.148209
    17  H    3.437033   3.937065   3.443740   2.160813   1.084547
    18  H    6.673242   5.827323   4.429704   4.053966   5.201455
    19  H    1.085682   2.150116   3.391114   3.837242   3.418423
    20  H    6.952653   5.588112   4.763303   5.628774   6.999078
    21  O    3.248014   2.830976   1.658566   0.500000   1.724994
                    6          7          8          9         10
     6  C    0.000000
     7  H    3.424260   0.000000
     8  C    4.540168   4.258735   0.000000
     9  C    4.205365   2.996393   1.408378   0.000000
    10  C    5.428326   3.369045   2.420324   1.400897   0.000000
    11  C    6.608059   4.764255   2.751707   2.404695   1.395458
    12  C    6.807385   5.636338   2.371167   2.791813   2.439281
    13  C    5.909856   5.456451   1.388648   2.462878   2.852591
    14  H    5.636340   2.944267   3.413678   2.168057   1.085944
    15  H    7.859493   6.692192   3.360948   3.877453   3.414715
    16  H    1.085779   4.310272   5.558518   5.288432   6.512262
    17  H    2.177096   5.022999   4.053972   4.429707   5.827327
    18  H    6.411746   6.400096   2.160810   3.443739   3.937063
    19  H    2.157512   2.484062   5.628775   4.763302   5.588112
    20  H    7.555074   5.370719   3.837236   3.391114   2.150116
    21  O    2.837686   3.773680   1.827575   2.188526   3.586350
                   11         12         13         14         15
    11  C    0.000000
    12  C    1.406669   0.000000
    13  C    2.444628   1.397745   0.000000
    14  H    2.160497   3.424260   3.938505   0.000000
    15  H    2.158643   1.085779   2.148206   4.310272   0.000000
    16  H    7.692121   7.859494   6.908575   6.692194   8.901028
    17  H    6.673245   6.411747   5.201459   6.400100   7.336662
    18  H    3.437031   2.177094   1.084547   5.022997   2.503968
    19  H    6.952652   7.555073   6.999078   5.370720   8.640752
    20  H    1.085682   2.157512   3.418418   2.484063   2.472854
    21  O    4.375234   4.195784   3.126061   4.286267   5.184487
                   16         17         18         19         20
    16  H    0.000000
    17  H    2.503969   0.000000
    18  H    7.336662   5.342838   0.000000
    19  H    2.472855   4.324822   7.736260   0.000000
    20  H    8.640753   7.736263   4.324819   7.701088   0.000000
    21  O    3.793279   2.298037   3.574640   4.333696   5.439404
                   21
    21  O    0.000000
 Symmetry turned off by external request.
 Stoichiometry    C12H8O
 Framework group  C1[X(C12H8O)]
 Deg. of freedom    57
 Full point group                 C1      NOp   1
 Rotational constants (GHZ):           2.5499070           0.5923810           0.4807059
 Standard basis: 6-31++G(d,p) (6D, 7F)
   295 basis functions,   480 primitive gaussians,   295 cartesian basis functions
    44 alpha electrons       44 beta electrons
       nuclear repulsion energy       743.4247780507 Hartrees.
 NAtoms=   21 NActive=   21 NUniq=   21 SFac= 1.00D+00 NAtFMM=   60 NAOKFM=F Big=F
 Integral buffers will be    131072 words long.
 Raffenetti 2 integral format.
 Two-electron integral symmetry is turned off.
 One-electron integrals computed using PRISM.
 NBasis=   295 RedAO= T EigKep=  2.08D-06  NBF=   295
 NBsUse=   291 1.00D-06 EigRej=  6.76D-07 NBFU=   291
 ExpMin= 3.60D-02 ExpMax= 5.48D+03 ExpMxC= 8.25D+02 IAcc=3 IRadAn=         5 AccDes= 0.00D+00
 Harris functional with IExCor=  402 and IRadAn=       5 diagonalized for initial guess.
 HarFok:  IExCor=  402 AccDes= 0.00D+00 IRadAn=         5 IDoV= 1 UseB2=F ITyADJ=14
 ICtDFT=  3500011 ScaDFX=  1.000000  1.000000  1.000000  1.000000
 FoFCou: FMM=F IPFlag=           0 FMFlag=      100000 FMFlg1=           0
         NFxFlg=           0 DoJE=T BraDBF=F KetDBF=T FulRan=T
         wScrn=  0.000000 ICntrl=       500 IOpCl=  0 I1Cent=   200000004 NGrid=           0
         NMat0=    1 NMatS0=      1 NMatT0=    0 NMatD0=    1 NMtDS0=    0 NMtDT0=    0
 Symmetry not used in FoFCou.
 Requested convergence on RMS density matrix=1.00D-08 within 128 cycles.
 Requested convergence on MAX density matrix=1.00D-06.
 Requested convergence on             energy=1.00D-06.
 No special actions if energy rises.
 EnCoef did     5 forward-backward iterations
 EnCoef did     5 forward-backward iterations
 EnCoef did     7 forward-backward iterations
 Restarting incremental Fock formation.
 SCF Done:  E(RB3LYP) =  -530.995514691     A.U. after   21 cycles
            NFock= 21  Conv=0.60D-08     -V/T= 1.9735

 **********************************************************************

            Population analysis using the SCF density.

 **********************************************************************

 Alpha  occ. eigenvalues --  -19.76714 -11.01287 -10.23405 -10.23024 -10.22599
 Alpha  occ. eigenvalues --  -10.21600 -10.21426 -10.20951 -10.19384 -10.19107
 Alpha  occ. eigenvalues --  -10.18401 -10.16121 -10.15699  -1.26780  -1.14982
 Alpha  occ. eigenvalues --   -1.08129  -0.87697  -0.83683  -0.77724  -0.76202
 Alpha  occ. eigenvalues --   -0.72057  -0.70392  -0.63403  -0.61343  -0.56672
 Alpha  occ. eigenvalues --   -0.55530  -0.52574  -0.51122  -0.47347  -0.46200
 Alpha  occ. eigenvalues --   -0.45566  -0.44373  -0.42809  -0.39875  -0.39839
 Alpha  occ. eigenvalues --   -0.38517  -0.37044  -0.34563  -0.33891  -0.29684
 Alpha  occ. eigenvalues --   -0.27848  -0.23768  -0.19929  -0.16975
 Alpha virt. eigenvalues --   -0.10144  -0.04752  -0.03319  -0.01235   0.00030
 Alpha virt. eigenvalues --    0.00361   0.01653   0.01813   0.01922   0.03902
 Alpha virt. eigenvalues --    0.03968   0.04392   0.04670   0.06591   0.06812
 Alpha virt. eigenvalues --    0.07046   0.07179   0.07628   0.08914   0.09813
 Alpha virt. eigenvalues --    0.10063   0.10371   0.10622   0.11289   0.11870
 Alpha virt. eigenvalues --    0.12186   0.12519   0.12637   0.13281   0.13448
 Alpha virt. eigenvalues --    0.13942   0.14275   0.14361   0.14511   0.15094
 Alpha virt. eigenvalues --    0.15956   0.15958   0.16717   0.17586   0.17783
 Alpha virt. eigenvalues --    0.18391   0.19540   0.19745   0.19953   0.20461
 Alpha virt. eigenvalues --    0.20753   0.21265   0.22206   0.23027   0.23572
 Alpha virt. eigenvalues --    0.23882   0.24366   0.24512   0.24656   0.26162
 Alpha virt. eigenvalues --    0.26759   0.27267   0.27491   0.29139   0.29469
 Alpha virt. eigenvalues --    0.29591   0.30438   0.31061   0.31660   0.31844
 Alpha virt. eigenvalues --    0.32979   0.33392   0.34360   0.34769   0.36169
 Alpha virt. eigenvalues --    0.36963   0.37264   0.37524   0.37772   0.39061
 Alpha virt. eigenvalues --    0.40465   0.43082   0.45077   0.47107   0.50644
 Alpha virt. eigenvalues --    0.57280   0.58607   0.61433   0.64091   0.65565
 Alpha virt. eigenvalues --    0.65680   0.67636   0.67899   0.69684   0.70106
 Alpha virt. eigenvalues --    0.70922   0.71813   0.72945   0.73476   0.73856
 Alpha virt. eigenvalues --    0.74805   0.75000   0.76795   0.77865   0.78586
 Alpha virt. eigenvalues --    0.79034   0.79929   0.82015   0.82558   0.83214
 Alpha virt. eigenvalues --    0.85126   0.86123   0.91202   0.92237   0.94088
 Alpha virt. eigenvalues --    0.94811   0.95863   0.97925   0.99629   1.00030
 Alpha virt. eigenvalues --    1.00969   1.01826   1.03888   1.04651   1.05478
 Alpha virt. eigenvalues --    1.08292   1.08809   1.10610   1.11951   1.12944
 Alpha virt. eigenvalues --    1.12964   1.14271   1.18090   1.19047   1.20066
 Alpha virt. eigenvalues --    1.21994   1.23992   1.24529   1.27212   1.29503
 Alpha virt. eigenvalues --    1.30587   1.33815   1.35430   1.37180   1.37230
 Alpha virt. eigenvalues --    1.38361   1.39296   1.39727   1.40402   1.41800
 Alpha virt. eigenvalues --    1.41812   1.47066   1.50341   1.50507   1.53565
 Alpha virt. eigenvalues --    1.60429   1.68392   1.71377   1.75409   1.79310
 Alpha virt. eigenvalues --    1.79481   1.82772   1.86461   1.86988   1.87749
 Alpha virt. eigenvalues --    1.89434   1.90716   1.92145   1.94331   1.96708
 Alpha virt. eigenvalues --    1.97838   1.97957   1.99182   1.99827   2.02634
 Alpha virt. eigenvalues --    2.03065   2.04710   2.06167   2.09177   2.13044
 Alpha virt. eigenvalues --    2.14656   2.20784   2.23126   2.24467   2.27986
 Alpha virt. eigenvalues --    2.31093   2.32239   2.35153   2.35204   2.37452
 Alpha virt. eigenvalues --    2.37530   2.38110   2.40148   2.43456   2.44326
 Alpha virt. eigenvalues --    2.45290   2.47390   2.49494   2.49795   2.51269
 Alpha virt. eigenvalues --    2.52992   2.53697   2.55851   2.57852   2.58824
 Alpha virt. eigenvalues --    2.59546   2.60379   2.63855   2.65838   2.65929
 Alpha virt. eigenvalues --    2.67056   2.70761   2.75878   2.76113   2.79255
 Alpha virt. eigenvalues --    2.85115   2.87436   2.90317   2.93460   2.98316
 Alpha virt. eigenvalues --    3.05921   3.13270   3.14781   3.21167   3.22700
 Alpha virt. eigenvalues --    3.28658   3.31419   3.33698   3.34874   3.41441
 Alpha virt. eigenvalues --    3.42374   3.51254   3.55126   3.82290   3.89921
 Alpha virt. eigenvalues --    3.96775   4.03881   4.27364   4.28741   4.33901
 Alpha virt. eigenvalues --    4.35365   4.37640   4.39073   4.49334   4.53375
 Alpha virt. eigenvalues --    4.56685   4.61730   4.74337   4.84549   4.97760
 Alpha virt. eigenvalues --    6.33539  16.80175
          Condensed to atoms (all electrons):
               1          2          3          4          5          6
     1  C    6.936298  -2.719556   0.971425   0.955012  -2.808616   0.181361
     2  C   -2.719556  27.966587  -7.212165 -11.086238  15.734630   1.304941
     3  C    0.971425  -7.212165  24.130457   8.530348  -7.355706  -0.793577
     4  C    0.955012 -11.086238   8.530348  58.463628 -20.428439  -2.535321
     5  C   -2.808616  15.734630  -7.355706 -20.428439  31.599176   2.729619
     6  C    0.181361   1.304941  -0.793577  -2.535321   2.729619   5.681254
     7  H   -0.149609   1.033963  -0.226781   0.050707   0.401453   0.083361
     8  C    1.682314 -17.065250  -8.638766  13.400548 -17.577386  -1.360726
     9  C    2.003348 -15.328373  -0.246122   0.234191 -11.858164  -0.839685
    10  C   -0.343010   4.405594   0.428072  -2.724437   1.801298   0.208659
    11  C   -0.050246  -0.022258   0.475361   0.028171  -0.022705  -0.007875
    12  C    0.048682  -0.766542  -2.098734  -1.084880  -0.833107  -0.032052
    13  C    0.165783  -0.913562  -2.624487  -2.051199  -3.013204  -0.150846
    14  H   -0.018363   0.085875  -0.026968  -0.026191   0.033519   0.004659
    15  H    0.001381  -0.025629  -0.121753  -0.083882  -0.032907  -0.000849
    16  H   -0.039492   0.027872   0.006369   0.042684  -0.037852   0.306320
    17  H   -0.037924   0.595301  -0.203423  -1.567737   1.486839   0.109652
    18  H   -0.006784   0.140988   0.355343   0.017374   0.258544   0.015031
    19  H    0.292179   0.334716  -0.167058  -0.138071   0.183688  -0.045432
    20  H    0.002398  -0.012557  -0.034717  -0.024607  -0.008843  -0.000791
    21  O   -0.701202  10.134969   0.221066 -32.694375  17.014234   1.229799
               7          8          9         10         11         12
     1  C   -0.149609   1.682314   2.003348  -0.343010  -0.050246   0.048682
     2  C    1.033963 -17.065250 -15.328373   4.405594  -0.022258  -0.766542
     3  C   -0.226781  -8.638766  -0.246122   0.428072   0.475361  -2.098734
     4  C    0.050707  13.400548   0.234191  -2.724437   0.028171  -1.084880
     5  C    0.401453 -17.577386 -11.858164   1.801298  -0.022705  -0.833107
     6  C    0.083361  -1.360726  -0.839685   0.208659  -0.007875  -0.032052
     7  H    0.746735  -0.471494  -0.719344   0.075895   0.000882  -0.029284
     8  C   -0.471494  42.995629  18.091604  -7.580201  -0.177726   2.077089
     9  C   -0.719344  18.091604  25.469062  -3.825152  -0.674061   0.664590
    10  C    0.075895  -7.580201  -3.825152  10.200727   0.326624  -0.489163
    11  C    0.000882  -0.177726  -0.674061   0.326624   6.016886   0.432019
    12  C   -0.029284   2.077089   0.664590  -0.489163   0.432019   6.613547
    13  C   -0.047812   2.104723   1.449938   1.143601  -0.564062   2.438369
    14  H   -0.014360  -0.111637  -0.153307   0.411935   0.021530  -0.000664
    15  H   -0.001170   0.018277   0.008837   0.033709  -0.036866   0.454813
    16  H   -0.002267   0.009748  -0.004036   0.002829  -0.000448   0.000348
    17  H    0.010940  -0.840903  -0.277464   0.072045   0.004087  -0.028800
    18  H    0.002327  -0.574081  -0.041680   0.125615  -0.008314  -0.288069
    19  H   -0.005969  -0.130881  -0.143887   0.026907   0.003018  -0.003609
    20  H    0.000027   0.034744   0.022321   0.023163   0.328473  -0.051320
    21  O    0.162354 -20.681522  -9.183617   2.102470   0.000706  -0.839468
              13         14         15         16         17         18
     1  C    0.165783  -0.018363   0.001381  -0.039492  -0.037924  -0.006784
     2  C   -0.913562   0.085875  -0.025629   0.027872   0.595301   0.140988
     3  C   -2.624487  -0.026968  -0.121753   0.006369  -0.203423   0.355343
     4  C   -2.051199  -0.026191  -0.083882   0.042684  -1.567737   0.017374
     5  C   -3.013204   0.033519  -0.032907  -0.037852   1.486839   0.258544
     6  C   -0.150846   0.004659  -0.000849   0.306320   0.109652   0.015031
     7  H   -0.047812  -0.014360  -0.001170  -0.002267   0.010940   0.002327
     8  C    2.104723  -0.111637   0.018277   0.009748  -0.840903  -0.574081
     9  C    1.449938  -0.153307   0.008837  -0.004036  -0.277464  -0.041680
    10  C    1.143601   0.411935   0.033709   0.002829   0.072045   0.125615
    11  C   -0.564062   0.021530  -0.036866  -0.000448   0.004087  -0.008314
    12  C    2.438369  -0.000664   0.454813   0.000348  -0.028800  -0.288069
    13  C   11.131425   0.005093   0.134979  -0.000693  -0.095686  -0.145865
    14  H    0.005093   0.665774  -0.004720   0.000084   0.000786   0.005940
    15  H    0.134979  -0.004720   0.637357   0.000024  -0.001381  -0.040447
    16  H   -0.000693   0.000084   0.000024   0.640816  -0.020993  -0.000229
    17  H   -0.095686   0.000786  -0.001381  -0.020993   0.738321   0.016718
    18  H   -0.145865   0.005940  -0.040447  -0.000229   0.016718   0.734613
    19  H   -0.007901   0.001833  -0.000127  -0.016057   0.009394   0.000783
    20  H    0.019253  -0.015381  -0.009522  -0.000027   0.000010  -0.003469
    21  O   -2.532968   0.029415  -0.032936  -0.018544   0.922967   0.309010
              19         20         21
     1  C    0.292179   0.002398  -0.701202
     2  C    0.334716  -0.012557  10.134969
     3  C   -0.167058  -0.034717   0.221066
     4  C   -0.138071  -0.024607 -32.694375
     5  C    0.183688  -0.008843  17.014234
     6  C   -0.045432  -0.000791   1.229799
     7  H   -0.005969   0.000027   0.162354
     8  C   -0.130881   0.034744 -20.681522
     9  C   -0.143887   0.022321  -9.183617
    10  C    0.026907   0.023163   2.102470
    11  C    0.003018   0.328473   0.000706
    12  C   -0.003609  -0.051320  -0.839468
    13  C   -0.007901   0.019253  -2.532968
    14  H    0.001833  -0.015381   0.029415
    15  H   -0.000127  -0.009522  -0.032936
    16  H   -0.016057  -0.000027  -0.018544
    17  H    0.009394   0.000010   0.922967
    18  H    0.000783  -0.003469   0.309010
    19  H    0.639433  -0.000065   0.076626
    20  H   -0.000065   0.617205  -0.003690
    21  O    0.076626  -0.003690  41.377583
 Mulliken charges:
               1
     1  C   -0.365378
     2  C   -0.613306
     3  C    0.631817
     4  C   -1.277288
     5  C   -1.266075
     6  C   -0.087502
     7  H    0.099446
     8  C    0.795899
     9  C    1.351000
    10  C   -0.427183
    11  C   -0.073196
    12  C   -0.183763
    13  C   -0.444880
    14  H    0.105150
    15  H    0.102815
    16  H    0.103542
    17  H    0.107249
    18  H    0.126652
    19  H    0.090482
    20  H    0.117396
    21  O    1.107124
 Sum of Mulliken charges =   0.00000
 Mulliken charges with hydrogens summed into heavy atoms:
               1
     1  C   -0.274896
     2  C   -0.513860
     3  C    0.631817
     4  C   -1.277288
     5  C   -1.158825
     6  C    0.016040
     8  C    0.795899
     9  C    1.351000
    10  C   -0.322034
    11  C    0.044201
    12  C   -0.080949
    13  C   -0.318228
    21  O    1.107124
 Electronic spatial extent (au):  <R**2>=           5417.1633
 Charge=              0.0000 electrons
 Dipole moment (field-independent basis, Debye):
    X=              1.7108    Y=             -0.0009    Z=              2.0093  Tot=              2.6390
 Quadrupole moment (field-independent basis, Debye-Ang):
   XX=            -61.1647   YY=            -80.7386   ZZ=            -60.2186
   XY=             -0.0050   XZ=              5.5502   YZ=             -0.0032
 Traceless Quadrupole moment (field-independent basis, Debye-Ang):
   XX=              6.2093   YY=            -13.3646   ZZ=              7.1553
   XY=             -0.0050   XZ=              5.5502   YZ=             -0.0032
 Octapole moment (field-independent basis, Debye-Ang**2):
  XXX=           -351.6796  YYY=              0.0279  ZZZ=           -479.5885  XYY=           -147.3065
  XXY=             -0.0124  XXZ=           -150.6274  XZZ=           -109.2090  YZZ=             -0.0201
  YYZ=           -207.2784  XYZ=             -0.0222
 Hexadecapole moment (field-independent basis, Debye-Ang**3):
 XXXX=          -2027.1030 YYYY=           -107.0490 ZZZZ=          -4561.9985 XXXY=              0.0038
 XXXZ=          -1101.6770 YYYX=              0.1064 YYYZ=              0.0681 ZZZX=          -1114.9760
 ZZZY=             -0.1324 XXYY=           -435.2461 XXZZ=          -1087.1587 YYZZ=           -996.8227
 XXYZ=             -0.0765 YYXZ=           -475.7308 ZZXY=             -0.1174
 N-N= 7.434247780507D+02 E-N=-2.728445250754D+03  KE= 5.454671431031D+02
 Variable Step   Value    
 -------- ---- -----------
    20       1    1.133836
 ---------------------------------------------------------------------------------------------------
                            Z-MATRIX (ANGSTROMS AND DEGREES)
   CD    Cent   Atom    N1       Length/X        N2       Alpha/Y        N3        Beta/Z          J
 ---------------------------------------------------------------------------------------------------
      1      1  C 
      2      2  C        1   1.395457(     1)
      3      3  C        2   1.400897(     2)      1  118.619(    21)
      4      4  C        3   1.408379(     3)      2  118.982(    22)      1   -0.004(    40)      0
      5      5  C        4   1.388650(     4)      3  123.412(    23)      2   -0.001(    41)      0
      6      6  C        5   1.397749(     5)      4  116.637(    24)      3   -0.007(    42)      0
      7      7  H        2   1.085944(     6)      1  120.564(    25)      6 -179.988(    43)      0
      8      8  C        4   2.202117(     7)      3   74.576(    26)      2 -179.999(    44)      0
      9      9  C        8   1.408378(     8)      4   74.576(    27)      3   -0.005(    45)      0
     10     10  C        9   1.400897(     9)      8  118.981(    28)      4 -179.997(    46)      0
     11     11  C       10   1.395458(    10)      9  118.619(    29)      8   -0.013(    47)      0
     12     12  C       11   1.406669(    11)     10  121.036(    30)      9   -0.015(    48)      0
     13     13  C        8   1.388648(    12)      4  162.012(    31)      3  179.931(    49)      0
     14     14  H       10   1.085944(    13)      9  120.816(    32)      8  179.995(    50)      0
     15     15  H       12   1.085779(    14)     11  119.455(    33)     10 -179.971(    51)      0
     16     16  H        6   1.085779(    15)      5  119.230(    34)      4  179.998(    52)      0
     17     17  H        5   1.084547(    16)      4  121.293(    35)      3 -179.983(    53)      0
     18     18  H       13   1.084547(    17)      8  121.293(    36)      4    0.073(    54)      0
     19     19  H        1   1.085682(    18)      2  119.607(    37)      3  179.995(    55)      0
     20     20  H       11   1.085682(    19)     10  119.607(    38)      9 -179.986(    56)      0
     21     21  O        4   0.600000(    20)      3  111.550(    39)      2  179.994(    57)      0
 ---------------------------------------------------------------------------------------------------
                         Z-Matrix orientation:                         
 ---------------------------------------------------------------------
 Center     Atomic      Atomic             Coordinates (Angstroms)
 Number     Number       Type             X           Y           Z
 ---------------------------------------------------------------------
      1          6           0        0.000000    0.000000    0.000000
      2          6           0        0.000000    0.000000    1.395457
      3          6           0        1.229738    0.000000    2.066471
      4          6           0        2.418883   -0.000091    1.311842
      5          6           0        2.443431   -0.000210   -0.076591
      6          6           0        1.205302   -0.000399   -0.725235
      7          1           0       -0.935061    0.000108    1.947666
      8          6           0        3.061798   -0.000021    3.418019
      9          6           0        1.653936    0.000154    3.456132
     10          6           0        1.008579    0.000379    4.699525
     11          6           0        1.787901    0.000132    5.857092
     12          6           0        3.192750   -0.000655    5.785567
     13          6           0        3.857559   -0.000517    4.556046
     14          1           0       -0.075470    0.000594    4.763659
     15          1           0        3.774054   -0.001311    6.702628
     16          1           0        1.175358   -0.000467   -1.810601
     17          1           0        3.380017   -0.000553   -0.623445
     18          1           0        4.939881   -0.000655    4.486618
     19          1           0       -0.943929   -0.000089   -0.536380
     20          1           0        1.304441    0.000070    6.829188
     21          8           0        2.903978   -0.000028    1.664946
 ---------------------------------------------------------------------
                    Distance matrix (angstroms):
                    1          2          3          4          5
     1  C    0.000000
     2  C    1.395457   0.000000
     3  C    2.404694   1.400897   0.000000
     4  C    2.751713   2.420327   1.408379   0.000000
     5  C    2.444632   2.852592   2.462878   1.388650   0.000000
     6  C    1.406670   2.439281   2.791813   2.371172   1.397749
     7  H    2.160496   1.085944   2.168056   3.413680   3.938506
     8  C    4.588841   3.669518   2.276648   2.202117   3.548898
     9  C    3.831494   2.642325   1.452963   2.276647   3.619866
    10  C    4.806534   3.454576   2.642326   3.669517   4.986992
    11  C    6.123897   4.806534   3.831495   4.588838   5.969783
    12  C    6.608059   5.428325   4.205365   4.540164   5.909854
    13  C    5.969784   4.986991   3.619866   3.548895   4.843665
    14  H    4.764256   3.369047   2.996396   4.258736   5.456453
    15  H    7.692120   6.512261   5.288431   5.558513   6.908572
    16  H    2.158644   3.414715   3.877453   3.360953   2.148209
    17  H    3.437033   3.937065   3.443740   2.160813   1.084547
    18  H    6.673242   5.827323   4.429704   4.053966   5.201455
    19  H    1.085682   2.150116   3.391114   3.837242   3.418423
    20  H    6.952653   5.588112   4.763303   5.628774   6.999078
    21  O    3.347407   2.916455   1.721715   0.600000   1.801403
                    6          7          8          9         10
     6  C    0.000000
     7  H    3.424260   0.000000
     8  C    4.540168   4.258735   0.000000
     9  C    4.205365   2.996393   1.408378   0.000000
    10  C    5.428326   3.369045   2.420324   1.400897   0.000000
    11  C    6.608059   4.764255   2.751707   2.404695   1.395458
    12  C    6.807385   5.636338   2.371167   2.791813   2.439281
    13  C    5.909856   5.456451   1.388648   2.462878   2.852591
    14  H    5.636340   2.944267   3.413678   2.168057   1.085944
    15  H    7.859493   6.692192   3.360948   3.877453   3.414715
    16  H    1.085779   4.310272   5.558518   5.288432   6.512262
    17  H    2.177096   5.022999   4.053972   4.429707   5.827327
    18  H    6.411746   6.400096   2.160810   3.443739   3.937063
    19  H    2.157512   2.484062   5.628775   4.763302   5.588112
    20  H    7.555074   5.370719   3.837236   3.391114   2.150116
    21  O    2.932314   3.849436   1.760162   2.184251   3.577878
                   11         12         13         14         15
    11  C    0.000000
    12  C    1.406669   0.000000
    13  C    2.444628   1.397745   0.000000
    14  H    2.160497   3.424260   3.938505   0.000000
    15  H    2.158643   1.085779   2.148206   4.310272   0.000000
    16  H    7.692121   7.859494   6.908575   6.692194   8.901028
    17  H    6.673245   6.411747   5.201459   6.400100   7.336662
    18  H    3.437031   2.177094   1.084547   5.022997   2.503968
    19  H    6.952652   7.555073   6.999078   5.370720   8.640752
    20  H    1.085682   2.157512   3.418418   2.484063   2.472854
    21  O    4.338170   4.130728   3.044303   4.298736   5.112267
                   16         17         18         19         20
    16  H    0.000000
    17  H    2.503969   0.000000
    18  H    7.336662   5.342838   0.000000
    19  H    2.472855   4.324822   7.736260   0.000000
    20  H    8.640753   7.736263   4.324819   7.701088   0.000000
    21  O    3.881695   2.337380   3.479473   4.433082   5.406285
                   21
    21  O    0.000000
 Symmetry turned off by external request.
 Stoichiometry    C12H8O
 Framework group  C1[X(C12H8O)]
 Deg. of freedom    57
 Full point group                 C1      NOp   1
 Rotational constants (GHZ):           2.5205810           0.5934692           0.4803671
 Standard basis: 6-31++G(d,p) (6D, 7F)
   295 basis functions,   480 primitive gaussians,   295 cartesian basis functions
    44 alpha electrons       44 beta electrons
       nuclear repulsion energy       733.8679749370 Hartrees.
 NAtoms=   21 NActive=   21 NUniq=   21 SFac= 1.00D+00 NAtFMM=   60 NAOKFM=F Big=F
 Integral buffers will be    131072 words long.
 Raffenetti 2 integral format.
 Two-electron integral symmetry is turned off.
 One-electron integrals computed using PRISM.
 NBasis=   295 RedAO= T EigKep=  2.09D-06  NBF=   295
 NBsUse=   291 1.00D-06 EigRej=  6.75D-07 NBFU=   291
 Initial guess from the checkpoint file:  "C:\Users\Administrator\Desktop\dataset_dft\C12H8O1.chk"
 B after Tr=     0.022610    0.000002    0.003676
         Rot=    1.000000    0.000000    0.000902    0.000000 Ang=  -0.10 deg.
 ExpMin= 3.60D-02 ExpMax= 5.48D+03 ExpMxC= 8.25D+02 IAcc=3 IRadAn=         5 AccDes= 0.00D+00
 Harris functional with IExCor=  402 and IRadAn=       5 diagonalized for initial guess.
 HarFok:  IExCor=  402 AccDes= 0.00D+00 IRadAn=         5 IDoV= 1 UseB2=F ITyADJ=14
 ICtDFT=  3500011 ScaDFX=  1.000000  1.000000  1.000000  1.000000
 FoFCou: FMM=F IPFlag=           0 FMFlag=      100000 FMFlg1=           0
         NFxFlg=           0 DoJE=T BraDBF=F KetDBF=T FulRan=T
         wScrn=  0.000000 ICntrl=       500 IOpCl=  0 I1Cent=   200000004 NGrid=           0
         NMat0=    1 NMatS0=      1 NMatT0=    0 NMatD0=    1 NMtDS0=    0 NMtDT0=    0
 Symmetry not used in FoFCou.
 Requested convergence on RMS density matrix=1.00D-08 within 128 cycles.
 Requested convergence on MAX density matrix=1.00D-06.
 Requested convergence on             energy=1.00D-06.
 No special actions if energy rises.
 SCF Done:  E(RB3LYP) =  -533.913196647     A.U. after   17 cycles
            NFock= 17  Conv=0.98D-08     -V/T= 1.9854
 Variable Step   Value    
 -------- ---- -----------
    20       2    1.322808
 ---------------------------------------------------------------------------------------------------
                            Z-MATRIX (ANGSTROMS AND DEGREES)
   CD    Cent   Atom    N1       Length/X        N2       Alpha/Y        N3        Beta/Z          J
 ---------------------------------------------------------------------------------------------------
      1      1  C 
      2      2  C        1   1.395457(     1)
      3      3  C        2   1.400897(     2)      1  118.619(    21)
      4      4  C        3   1.408379(     3)      2  118.982(    22)      1   -0.004(    40)      0
      5      5  C        4   1.388650(     4)      3  123.412(    23)      2   -0.001(    41)      0
      6      6  C        5   1.397749(     5)      4  116.637(    24)      3   -0.007(    42)      0
      7      7  H        2   1.085944(     6)      1  120.564(    25)      6 -179.988(    43)      0
      8      8  C        4   2.202117(     7)      3   74.576(    26)      2 -179.999(    44)      0
      9      9  C        8   1.408378(     8)      4   74.576(    27)      3   -0.005(    45)      0
     10     10  C        9   1.400897(     9)      8  118.981(    28)      4 -179.997(    46)      0
     11     11  C       10   1.395458(    10)      9  118.619(    29)      8   -0.013(    47)      0
     12     12  C       11   1.406669(    11)     10  121.036(    30)      9   -0.015(    48)      0
     13     13  C        8   1.388648(    12)      4  162.012(    31)      3  179.931(    49)      0
     14     14  H       10   1.085944(    13)      9  120.816(    32)      8  179.995(    50)      0
     15     15  H       12   1.085779(    14)     11  119.455(    33)     10 -179.971(    51)      0
     16     16  H        6   1.085779(    15)      5  119.230(    34)      4  179.998(    52)      0
     17     17  H        5   1.084547(    16)      4  121.293(    35)      3 -179.983(    53)      0
     18     18  H       13   1.084547(    17)      8  121.293(    36)      4    0.073(    54)      0
     19     19  H        1   1.085682(    18)      2  119.607(    37)      3  179.995(    55)      0
     20     20  H       11   1.085682(    19)     10  119.607(    38)      9 -179.986(    56)      0
     21     21  O        4   0.700000(    20)      3  111.550(    39)      2  179.994(    57)      0
 ---------------------------------------------------------------------------------------------------
                         Z-Matrix orientation:                         
 ---------------------------------------------------------------------
 Center     Atomic      Atomic             Coordinates (Angstroms)
 Number     Number       Type             X           Y           Z
 ---------------------------------------------------------------------
      1          6           0        0.000000    0.000000    0.000000
      2          6           0        0.000000    0.000000    1.395457
      3          6           0        1.229738    0.000000    2.066471
      4          6           0        2.418883   -0.000091    1.311842
      5          6           0        2.443431   -0.000210   -0.076591
      6          6           0        1.205302   -0.000399   -0.725235
      7          1           0       -0.935061    0.000108    1.947666
      8          6           0        3.061798   -0.000021    3.418019
      9          6           0        1.653936    0.000154    3.456132
     10          6           0        1.008579    0.000379    4.699525
     11          6           0        1.787901    0.000132    5.857092
     12          6           0        3.192750   -0.000655    5.785567
     13          6           0        3.857559   -0.000517    4.556046
     14          1           0       -0.075470    0.000594    4.763659
     15          1           0        3.774054   -0.001311    6.702628
     16          1           0        1.175358   -0.000467   -1.810601
     17          1           0        3.380017   -0.000553   -0.623445
     18          1           0        4.939881   -0.000655    4.486618
     19          1           0       -0.943929   -0.000089   -0.536380
     20          1           0        1.304441    0.000070    6.829188
     21          8           0        2.984827   -0.000018    1.723796
 ---------------------------------------------------------------------
                    Distance matrix (angstroms):
                    1          2          3          4          5
     1  C    0.000000
     2  C    1.395457   0.000000
     3  C    2.404694   1.400897   0.000000
     4  C    2.751713   2.420327   1.408379   0.000000
     5  C    2.444632   2.852592   2.462878   1.388650   0.000000
     6  C    1.406670   2.439281   2.791813   2.371172   1.397749
     7  H    2.160496   1.085944   2.168056   3.413680   3.938506
     8  C    4.588841   3.669518   2.276648   2.202117   3.548898
     9  C    3.831494   2.642325   1.452963   2.276647   3.619866
    10  C    4.806534   3.454576   2.642326   3.669517   4.986992
    11  C    6.123897   4.806534   3.831495   4.588838   5.969783
    12  C    6.608059   5.428325   4.205365   4.540164   5.909854
    13  C    5.969784   4.986991   3.619866   3.548895   4.843665
    14  H    4.764256   3.369047   2.996396   4.258736   5.456453
    15  H    7.692120   6.512261   5.288431   5.558513   6.908572
    16  H    2.158644   3.414715   3.877453   3.360953   2.148209
    17  H    3.437033   3.937065   3.443740   2.160813   1.084547
    18  H    6.673242   5.827323   4.429704   4.053966   5.201455
    19  H    1.085682   2.150116   3.391114   3.837242   3.418423
    20  H    6.952653   5.588112   4.763303   5.628774   6.999078
    21  O    3.446835   3.002832   1.788230   0.700000   1.880028
                    6          7          8          9         10
     6  C    0.000000
     7  H    3.424260   0.000000
     8  C    4.540168   4.258735   0.000000
     9  C    4.205365   2.996393   1.408378   0.000000
    10  C    5.428326   3.369045   2.420324   1.400897   0.000000
    11  C    6.608059   4.764255   2.751707   2.404695   1.395458
    12  C    6.807385   5.636338   2.371167   2.791813   2.439281
    13  C    5.909856   5.456451   1.388648   2.462878   2.852591
    14  H    5.636340   2.944267   3.413678   2.168057   1.085944
    15  H    7.859493   6.692192   3.360948   3.877453   3.414715
    16  H    1.085779   4.310272   5.558518   5.288432   6.512262
    17  H    2.177096   5.022999   4.053972   4.429707   5.827327
    18  H    6.411746   6.400096   2.160810   3.443739   3.937063
    19  H    2.157512   2.484062   5.628775   4.763302   5.588112
    20  H    7.555074   5.370719   3.837236   3.391114   2.150116
    21  O    3.027287   3.926276   1.695970   2.184550   3.572187
                   11         12         13         14         15
    11  C    0.000000
    12  C    1.406669   0.000000
    13  C    2.444628   1.397745   0.000000
    14  H    2.160497   3.424260   3.938505   0.000000
    15  H    2.158643   1.085779   2.148206   4.310272   0.000000
    16  H    7.692121   7.859494   6.908575   6.692194   8.901028
    17  H    6.673245   6.411747   5.201459   6.400100   7.336662
    18  H    3.437031   2.177094   1.084547   5.022997   2.503968
    19  H    6.952652   7.555073   6.999078   5.370720   8.640752
    20  H    1.085682   2.157512   3.418418   2.484063   2.472854
    21  O    4.303111   4.067089   2.963663   4.313488   5.040997
                   16         17         18         19         20
    16  H    0.000000
    17  H    2.503969   0.000000
    18  H    7.336662   5.342838   0.000000
    19  H    2.472855   4.324822   7.736260   0.000000
    20  H    8.640753   7.736263   4.324819   7.701088   0.000000
    21  O    3.970661   2.380277   3.384585   4.532496   5.374823
                   21
    21  O    0.000000
 Symmetry turned off by external request.
 Stoichiometry    C12H8O
 Framework group  C1[X(C12H8O)]
 Deg. of freedom    57
 Full point group                 C1      NOp   1
 Rotational constants (GHZ):           2.4906056           0.5944339           0.4798967
 Standard basis: 6-31++G(d,p) (6D, 7F)
   295 basis functions,   480 primitive gaussians,   295 cartesian basis functions
    44 alpha electrons       44 beta electrons
       nuclear repulsion energy       726.8149856046 Hartrees.
 NAtoms=   21 NActive=   21 NUniq=   21 SFac= 1.00D+00 NAtFMM=   60 NAOKFM=F Big=F
 Integral buffers will be    131072 words long.
 Raffenetti 2 integral format.
 Two-electron integral symmetry is turned off.
 One-electron integrals computed using PRISM.
 NBasis=   295 RedAO= T EigKep=  2.10D-06  NBF=   295
 NBsUse=   291 1.00D-06 EigRej=  6.74D-07 NBFU=   291
 Initial guess from the checkpoint file:  "C:\Users\Administrator\Desktop\dataset_dft\C12H8O1.chk"
 B after Tr=     0.022621    0.000002    0.003656
         Rot=    1.000000    0.000000    0.000901    0.000000 Ang=  -0.10 deg.
 ExpMin= 3.60D-02 ExpMax= 5.48D+03 ExpMxC= 8.25D+02 IAcc=3 IRadAn=         5 AccDes= 0.00D+00
 Harris functional with IExCor=  402 and IRadAn=       5 diagonalized for initial guess.
 HarFok:  IExCor=  402 AccDes= 0.00D+00 IRadAn=         5 IDoV= 1 UseB2=F ITyADJ=14
 ICtDFT=  3500011 ScaDFX=  1.000000  1.000000  1.000000  1.000000
 FoFCou: FMM=F IPFlag=           0 FMFlag=      100000 FMFlg1=           0
         NFxFlg=           0 DoJE=T BraDBF=F KetDBF=T FulRan=T
         wScrn=  0.000000 ICntrl=       500 IOpCl=  0 I1Cent=   200000004 NGrid=           0
         NMat0=    1 NMatS0=      1 NMatT0=    0 NMatD0=    1 NMtDS0=    0 NMtDT0=    0
 Symmetry not used in FoFCou.
 Requested convergence on RMS density matrix=1.00D-08 within 128 cycles.
 Requested convergence on MAX density matrix=1.00D-06.
 Requested convergence on             energy=1.00D-06.
 No special actions if energy rises.
 SCF Done:  E(RB3LYP) =  -535.506657125     A.U. after   16 cycles
            NFock= 16  Conv=0.45D-08     -V/T= 1.9940
 Variable Step   Value    
 -------- ---- -----------
    20       3    1.511781
 ---------------------------------------------------------------------------------------------------
                            Z-MATRIX (ANGSTROMS AND DEGREES)
   CD    Cent   Atom    N1       Length/X        N2       Alpha/Y        N3        Beta/Z          J
 ---------------------------------------------------------------------------------------------------
      1      1  C 
      2      2  C        1   1.395457(     1)
      3      3  C        2   1.400897(     2)      1  118.619(    21)
      4      4  C        3   1.408379(     3)      2  118.982(    22)      1   -0.004(    40)      0
      5      5  C        4   1.388650(     4)      3  123.412(    23)      2   -0.001(    41)      0
      6      6  C        5   1.397749(     5)      4  116.637(    24)      3   -0.007(    42)      0
      7      7  H        2   1.085944(     6)      1  120.564(    25)      6 -179.988(    43)      0
      8      8  C        4   2.202117(     7)      3   74.576(    26)      2 -179.999(    44)      0
      9      9  C        8   1.408378(     8)      4   74.576(    27)      3   -0.005(    45)      0
     10     10  C        9   1.400897(     9)      8  118.981(    28)      4 -179.997(    46)      0
     11     11  C       10   1.395458(    10)      9  118.619(    29)      8   -0.013(    47)      0
     12     12  C       11   1.406669(    11)     10  121.036(    30)      9   -0.015(    48)      0
     13     13  C        8   1.388648(    12)      4  162.012(    31)      3  179.931(    49)      0
     14     14  H       10   1.085944(    13)      9  120.816(    32)      8  179.995(    50)      0
     15     15  H       12   1.085779(    14)     11  119.455(    33)     10 -179.971(    51)      0
     16     16  H        6   1.085779(    15)      5  119.230(    34)      4  179.998(    52)      0
     17     17  H        5   1.084547(    16)      4  121.293(    35)      3 -179.983(    53)      0
     18     18  H       13   1.084547(    17)      8  121.293(    36)      4    0.073(    54)      0
     19     19  H        1   1.085682(    18)      2  119.607(    37)      3  179.995(    55)      0
     20     20  H       11   1.085682(    19)     10  119.607(    38)      9 -179.986(    56)      0
     21     21  O        4   0.800000(    20)      3  111.550(    39)      2  179.994(    57)      0
 ---------------------------------------------------------------------------------------------------
                         Z-Matrix orientation:                         
 ---------------------------------------------------------------------
 Center     Atomic      Atomic             Coordinates (Angstroms)
 Number     Number       Type             X           Y           Z
 ---------------------------------------------------------------------
      1          6           0        0.000000    0.000000    0.000000
      2          6           0        0.000000    0.000000    1.395457
      3          6           0        1.229738    0.000000    2.066471
      4          6           0        2.418883   -0.000091    1.311842
      5          6           0        2.443431   -0.000210   -0.076591
      6          6           0        1.205302   -0.000399   -0.725235
      7          1           0       -0.935061    0.000108    1.947666
      8          6           0        3.061798   -0.000021    3.418019
      9          6           0        1.653936    0.000154    3.456132
     10          6           0        1.008579    0.000379    4.699525
     11          6           0        1.787901    0.000132    5.857092
     12          6           0        3.192750   -0.000655    5.785567
     13          6           0        3.857559   -0.000517    4.556046
     14          1           0       -0.075470    0.000594    4.763659
     15          1           0        3.774054   -0.001311    6.702628
     16          1           0        1.175358   -0.000467   -1.810601
     17          1           0        3.380017   -0.000553   -0.623445
     18          1           0        4.939881   -0.000655    4.486618
     19          1           0       -0.943929   -0.000089   -0.536380
     20          1           0        1.304441    0.000070    6.829188
     21          8           0        3.065677   -0.000007    1.782647
 ---------------------------------------------------------------------
                    Distance matrix (angstroms):
                    1          2          3          4          5
     1  C    0.000000
     2  C    1.395457   0.000000
     3  C    2.404694   1.400897   0.000000
     4  C    2.751713   2.420327   1.408379   0.000000
     5  C    2.444632   2.852592   2.462878   1.388650   0.000000
     6  C    1.406670   2.439281   2.791813   2.371172   1.397749
     7  H    2.160496   1.085944   2.168056   3.413680   3.938506
     8  C    4.588841   3.669518   2.276648   2.202117   3.548898
     9  C    3.831494   2.642325   1.452963   2.276647   3.619866
    10  C    4.806534   3.454576   2.642326   3.669517   4.986992
    11  C    6.123897   4.806534   3.831495   4.588838   5.969783
    12  C    6.608059   5.428325   4.205365   4.540164   5.909854
    13  C    5.969784   4.986991   3.619866   3.548895   4.843665
    14  H    4.764256   3.369047   2.996396   4.258736   5.456453
    15  H    7.692120   6.512261   5.288431   5.558513   6.908572
    16  H    2.158644   3.414715   3.877453   3.360953   2.148209
    17  H    3.437033   3.937065   3.443740   2.160813   1.084547
    18  H    6.673242   5.827323   4.429704   4.053966   5.201455
    19  H    1.085682   2.150116   3.391114   3.837242   3.418423
    20  H    6.952653   5.588112   4.763303   5.628774   6.999078
    21  O    3.546294   3.090031   1.857748   0.800000   1.960601
                    6          7          8          9         10
     6  C    0.000000
     7  H    3.424260   0.000000
     8  C    4.540168   4.258735   0.000000
     9  C    4.205365   2.996393   1.408378   0.000000
    10  C    5.428326   3.369045   2.420324   1.400897   0.000000
    11  C    6.608059   4.764255   2.751707   2.404695   1.395458
    12  C    6.807385   5.636338   2.371167   2.791813   2.439281
    13  C    5.909856   5.456451   1.388648   2.462878   2.852591
    14  H    5.636340   2.944267   3.413678   2.168057   1.085944
    15  H    7.859493   6.692192   3.360948   3.877453   3.414715
    16  H    1.085779   4.310272   5.558518   5.288432   6.512262
    17  H    2.177096   5.022999   4.053972   4.429707   5.827327
    18  H    6.411746   6.400096   2.160810   3.443739   3.937063
    19  H    2.157512   2.484062   5.628775   4.763302   5.588112
    20  H    7.555074   5.370719   3.837236   3.391114   2.150116
    21  O    3.122573   4.004140   1.635376   2.189421   3.569290
                   11         12         13         14         15
    11  C    0.000000
    12  C    1.406669   0.000000
    13  C    2.444628   1.397745   0.000000
    14  H    2.160497   3.424260   3.938505   0.000000
    15  H    2.158643   1.085779   2.148206   4.310272   0.000000
    16  H    7.692121   7.859494   6.908575   6.692194   8.901028
    17  H    6.673245   6.411747   5.201459   6.400100   7.336662
    18  H    3.437031   2.177094   1.084547   5.022997   2.503968
    19  H    6.952652   7.555073   6.999078   5.370720   8.640752
    20  H    1.085682   2.157512   3.418418   2.484063   2.472854
    21  O    4.270107   4.004937   2.884237   4.330500   4.970716
                   16         17         18         19         20
    16  H    0.000000
    17  H    2.503969   0.000000
    18  H    7.336662   5.342838   0.000000
    19  H    2.472855   4.324822   7.736260   0.000000
    20  H    8.640753   7.736263   4.324819   7.701088   0.000000
    21  O    4.060140   2.426539   3.290000   4.631935   5.345047
                   21
    21  O    0.000000
 Symmetry turned off by external request.
 Stoichiometry    C12H8O
 Framework group  C1[X(C12H8O)]
 Deg. of freedom    57
 Full point group                 C1      NOp   1
 Rotational constants (GHZ):           2.4600670           0.5952730           0.4792957
 Standard basis: 6-31++G(d,p) (6D, 7F)
   295 basis functions,   480 primitive gaussians,   295 cartesian basis functions
    44 alpha electrons       44 beta electrons
       nuclear repulsion energy       721.3543242056 Hartrees.
 NAtoms=   21 NActive=   21 NUniq=   21 SFac= 1.00D+00 NAtFMM=   60 NAOKFM=F Big=F
 Integral buffers will be    131072 words long.
 Raffenetti 2 integral format.
 Two-electron integral symmetry is turned off.
 One-electron integrals computed using PRISM.
 NBasis=   295 RedAO= T EigKep=  2.10D-06  NBF=   295
 NBsUse=   291 1.00D-06 EigRej=  6.74D-07 NBFU=   291
 Initial guess from the checkpoint file:  "C:\Users\Administrator\Desktop\dataset_dft\C12H8O1.chk"
 B after Tr=     0.022631    0.000002    0.003638
         Rot=    1.000000    0.000000    0.000900    0.000000 Ang=  -0.10 deg.
 ExpMin= 3.60D-02 ExpMax= 5.48D+03 ExpMxC= 8.25D+02 IAcc=3 IRadAn=         5 AccDes= 0.00D+00
 Harris functional with IExCor=  402 and IRadAn=       5 diagonalized for initial guess.
 HarFok:  IExCor=  402 AccDes= 0.00D+00 IRadAn=         5 IDoV= 1 UseB2=F ITyADJ=14
 ICtDFT=  3500011 ScaDFX=  1.000000  1.000000  1.000000  1.000000
 FoFCou: FMM=F IPFlag=           0 FMFlag=      100000 FMFlg1=           0
         NFxFlg=           0 DoJE=T BraDBF=F KetDBF=T FulRan=T
         wScrn=  0.000000 ICntrl=       500 IOpCl=  0 I1Cent=   200000004 NGrid=           0
         NMat0=    1 NMatS0=      1 NMatT0=    0 NMatD0=    1 NMtDS0=    0 NMtDT0=    0
 Symmetry not used in FoFCou.
 Requested convergence on RMS density matrix=1.00D-08 within 128 cycles.
 Requested convergence on MAX density matrix=1.00D-06.
 Requested convergence on             energy=1.00D-06.
 No special actions if energy rises.
 SCF Done:  E(RB3LYP) =  -536.378464418     A.U. after   15 cycles
            NFock= 15  Conv=0.98D-08     -V/T= 1.9998
 Variable Step   Value    
 -------- ---- -----------
    20       4    1.700754
 ---------------------------------------------------------------------------------------------------
                            Z-MATRIX (ANGSTROMS AND DEGREES)
   CD    Cent   Atom    N1       Length/X        N2       Alpha/Y        N3        Beta/Z          J
 ---------------------------------------------------------------------------------------------------
      1      1  C 
      2      2  C        1   1.395457(     1)
      3      3  C        2   1.400897(     2)      1  118.619(    21)
      4      4  C        3   1.408379(     3)      2  118.982(    22)      1   -0.004(    40)      0
      5      5  C        4   1.388650(     4)      3  123.412(    23)      2   -0.001(    41)      0
      6      6  C        5   1.397749(     5)      4  116.637(    24)      3   -0.007(    42)      0
      7      7  H        2   1.085944(     6)      1  120.564(    25)      6 -179.988(    43)      0
      8      8  C        4   2.202117(     7)      3   74.576(    26)      2 -179.999(    44)      0
      9      9  C        8   1.408378(     8)      4   74.576(    27)      3   -0.005(    45)      0
     10     10  C        9   1.400897(     9)      8  118.981(    28)      4 -179.997(    46)      0
     11     11  C       10   1.395458(    10)      9  118.619(    29)      8   -0.013(    47)      0
     12     12  C       11   1.406669(    11)     10  121.036(    30)      9   -0.015(    48)      0
     13     13  C        8   1.388648(    12)      4  162.012(    31)      3  179.931(    49)      0
     14     14  H       10   1.085944(    13)      9  120.816(    32)      8  179.995(    50)      0
     15     15  H       12   1.085779(    14)     11  119.455(    33)     10 -179.971(    51)      0
     16     16  H        6   1.085779(    15)      5  119.230(    34)      4  179.998(    52)      0
     17     17  H        5   1.084547(    16)      4  121.293(    35)      3 -179.983(    53)      0
     18     18  H       13   1.084547(    17)      8  121.293(    36)      4    0.073(    54)      0
     19     19  H        1   1.085682(    18)      2  119.607(    37)      3  179.995(    55)      0
     20     20  H       11   1.085682(    19)     10  119.607(    38)      9 -179.986(    56)      0
     21     21  O        4   0.900000(    20)      3  111.550(    39)      2  179.994(    57)      0
 ---------------------------------------------------------------------------------------------------
                         Z-Matrix orientation:                         
 ---------------------------------------------------------------------
 Center     Atomic      Atomic             Coordinates (Angstroms)
 Number     Number       Type             X           Y           Z
 ---------------------------------------------------------------------
      1          6           0        0.000000    0.000000    0.000000
      2          6           0        0.000000    0.000000    1.395457
      3          6           0        1.229738    0.000000    2.066471
      4          6           0        2.418883   -0.000091    1.311842
      5          6           0        2.443431   -0.000210   -0.076591
      6          6           0        1.205302   -0.000399   -0.725235
      7          1           0       -0.935061    0.000108    1.947666
      8          6           0        3.061798   -0.000021    3.418019
      9          6           0        1.653936    0.000154    3.456132
     10          6           0        1.008579    0.000379    4.699525
     11          6           0        1.787901    0.000132    5.857092
     12          6           0        3.192750   -0.000655    5.785567
     13          6           0        3.857559   -0.000517    4.556046
     14          1           0       -0.075470    0.000594    4.763659
     15          1           0        3.774054   -0.001311    6.702628
     16          1           0        1.175358   -0.000467   -1.810601
     17          1           0        3.380017   -0.000553   -0.623445
     18          1           0        4.939881   -0.000655    4.486618
     19          1           0       -0.943929   -0.000089   -0.536380
     20          1           0        1.304441    0.000070    6.829188
     21          8           0        3.146526    0.000003    1.841498
 ---------------------------------------------------------------------
                    Distance matrix (angstroms):
                    1          2          3          4          5
     1  C    0.000000
     2  C    1.395457   0.000000
     3  C    2.404694   1.400897   0.000000
     4  C    2.751713   2.420327   1.408379   0.000000
     5  C    2.444632   2.852592   2.462878   1.388650   0.000000
     6  C    1.406670   2.439281   2.791813   2.371172   1.397749
     7  H    2.160496   1.085944   2.168056   3.413680   3.938506
     8  C    4.588841   3.669518   2.276648   2.202117   3.548898
     9  C    3.831494   2.642325   1.452963   2.276647   3.619866
    10  C    4.806534   3.454576   2.642326   3.669517   4.986992
    11  C    6.123897   4.806534   3.831495   4.588838   5.969783
    12  C    6.608059   5.428325   4.205365   4.540164   5.909854
    13  C    5.969784   4.986991   3.619866   3.548895   4.843665
    14  H    4.764256   3.369047   2.996396   4.258736   5.456453
    15  H    7.692120   6.512261   5.288431   5.558513   6.908572
    16  H    2.158644   3.414715   3.877453   3.360953   2.148209
    17  H    3.437033   3.937065   3.443740   2.160813   1.084547
    18  H    6.673242   5.827323   4.429704   4.053966   5.201455
    19  H    1.085682   2.150116   3.391114   3.837242   3.418423
    20  H    6.952653   5.588112   4.763303   5.628774   6.999078
    21  O    3.645784   3.177983   1.929946   0.900000   2.042892
                    6          7          8          9         10
     6  C    0.000000
     7  H    3.424260   0.000000
     8  C    4.540168   4.258735   0.000000
     9  C    4.205365   2.996393   1.408378   0.000000
    10  C    5.428326   3.369045   2.420324   1.400897   0.000000
    11  C    6.608059   4.764255   2.751707   2.404695   1.395458
    12  C    6.807385   5.636338   2.371167   2.791813   2.439281
    13  C    5.909856   5.456451   1.388648   2.462878   2.852591
    14  H    5.636340   2.944267   3.413678   2.168057   1.085944
    15  H    7.859493   6.692192   3.360948   3.877453   3.414715
    16  H    1.085779   4.310272   5.558518   5.288432   6.512262
    17  H    2.177096   5.022999   4.053972   4.429707   5.827327
    18  H    6.411746   6.400096   2.160810   3.443739   3.937063
    19  H    2.157512   2.484062   5.628775   4.763302   5.588112
    20  H    7.555074   5.370719   3.837236   3.391114   2.150116
    21  O    3.218146   4.082968   1.578796   2.198833   3.569193
                   11         12         13         14         15
    11  C    0.000000
    12  C    1.406669   0.000000
    13  C    2.444628   1.397745   0.000000
    14  H    2.160497   3.424260   3.938505   0.000000
    15  H    2.158643   1.085779   2.148206   4.310272   0.000000
    16  H    7.692121   7.859494   6.908575   6.692194   8.901028
    17  H    6.673245   6.411747   5.201459   6.400100   7.336662
    18  H    3.437031   2.177094   1.084547   5.022997   2.503968
    19  H    6.952652   7.555073   6.999078   5.370720   8.640752
    20  H    1.085682   2.157512   3.418418   2.484063   2.472854
    21  O    4.239205   3.944340   2.806126   4.349745   4.901467
                   16         17         18         19         20
    16  H    0.000000
    17  H    2.503969   0.000000
    18  H    7.336662   5.342838   0.000000
    19  H    2.472855   4.324822   7.736260   0.000000
    20  H    8.640753   7.736263   4.324819   7.701088   0.000000
    21  O    4.150100   2.475977   3.195745   4.731397   5.316985
                   21
    21  O    0.000000
 Symmetry turned off by external request.
 Stoichiometry    C12H8O
 Framework group  C1[X(C12H8O)]
 Deg. of freedom    57
 Full point group                 C1      NOp   1
 Rotational constants (GHZ):           2.4290505           0.5959842           0.4785650
 Standard basis: 6-31++G(d,p) (6D, 7F)
   295 basis functions,   480 primitive gaussians,   295 cartesian basis functions
    44 alpha electrons       44 beta electrons
       nuclear repulsion energy       716.9744599929 Hartrees.
 NAtoms=   21 NActive=   21 NUniq=   21 SFac= 1.00D+00 NAtFMM=   60 NAOKFM=F Big=F
 Integral buffers will be    131072 words long.
 Raffenetti 2 integral format.
 Two-electron integral symmetry is turned off.
 One-electron integrals computed using PRISM.
 NBasis=   295 RedAO= T EigKep=  2.10D-06  NBF=   295
 NBsUse=   291 1.00D-06 EigRej=  6.74D-07 NBFU=   291
 Initial guess from the checkpoint file:  "C:\Users\Administrator\Desktop\dataset_dft\C12H8O1.chk"
 B after Tr=     0.022638    0.000002    0.003621
         Rot=    1.000000    0.000000    0.000899    0.000000 Ang=  -0.10 deg.
 ExpMin= 3.60D-02 ExpMax= 5.48D+03 ExpMxC= 8.25D+02 IAcc=3 IRadAn=         5 AccDes= 0.00D+00
 Harris functional with IExCor=  402 and IRadAn=       5 diagonalized for initial guess.
 HarFok:  IExCor=  402 AccDes= 0.00D+00 IRadAn=         5 IDoV= 1 UseB2=F ITyADJ=14
 ICtDFT=  3500011 ScaDFX=  1.000000  1.000000  1.000000  1.000000
 FoFCou: FMM=F IPFlag=           0 FMFlag=      100000 FMFlg1=           0
         NFxFlg=           0 DoJE=T BraDBF=F KetDBF=T FulRan=T
         wScrn=  0.000000 ICntrl=       500 IOpCl=  0 I1Cent=   200000004 NGrid=           0
         NMat0=    1 NMatS0=      1 NMatT0=    0 NMatD0=    1 NMtDS0=    0 NMtDT0=    0
 Symmetry not used in FoFCou.
 Requested convergence on RMS density matrix=1.00D-08 within 128 cycles.
 Requested convergence on MAX density matrix=1.00D-06.
 Requested convergence on             energy=1.00D-06.
 No special actions if energy rises.
 SCF Done:  E(RB3LYP) =  -536.855990730     A.U. after   14 cycles
            NFock= 14  Conv=0.63D-08     -V/T= 2.0037
 Variable Step   Value    
 -------- ---- -----------
    20       5    1.889726
 ---------------------------------------------------------------------------------------------------
                            Z-MATRIX (ANGSTROMS AND DEGREES)
   CD    Cent   Atom    N1       Length/X        N2       Alpha/Y        N3        Beta/Z          J
 ---------------------------------------------------------------------------------------------------
      1      1  C 
      2      2  C        1   1.395457(     1)
      3      3  C        2   1.400897(     2)      1  118.619(    21)
      4      4  C        3   1.408379(     3)      2  118.982(    22)      1   -0.004(    40)      0
      5      5  C        4   1.388650(     4)      3  123.412(    23)      2   -0.001(    41)      0
      6      6  C        5   1.397749(     5)      4  116.637(    24)      3   -0.007(    42)      0
      7      7  H        2   1.085944(     6)      1  120.564(    25)      6 -179.988(    43)      0
      8      8  C        4   2.202117(     7)      3   74.576(    26)      2 -179.999(    44)      0
      9      9  C        8   1.408378(     8)      4   74.576(    27)      3   -0.005(    45)      0
     10     10  C        9   1.400897(     9)      8  118.981(    28)      4 -179.997(    46)      0
     11     11  C       10   1.395458(    10)      9  118.619(    29)      8   -0.013(    47)      0
     12     12  C       11   1.406669(    11)     10  121.036(    30)      9   -0.015(    48)      0
     13     13  C        8   1.388648(    12)      4  162.012(    31)      3  179.931(    49)      0
     14     14  H       10   1.085944(    13)      9  120.816(    32)      8  179.995(    50)      0
     15     15  H       12   1.085779(    14)     11  119.455(    33)     10 -179.971(    51)      0
     16     16  H        6   1.085779(    15)      5  119.230(    34)      4  179.998(    52)      0
     17     17  H        5   1.084547(    16)      4  121.293(    35)      3 -179.983(    53)      0
     18     18  H       13   1.084547(    17)      8  121.293(    36)      4    0.073(    54)      0
     19     19  H        1   1.085682(    18)      2  119.607(    37)      3  179.995(    55)      0
     20     20  H       11   1.085682(    19)     10  119.607(    38)      9 -179.986(    56)      0
     21     21  O        4   1.000000(    20)      3  111.550(    39)      2  179.994(    57)      0
 ---------------------------------------------------------------------------------------------------
                         Z-Matrix orientation:                         
 ---------------------------------------------------------------------
 Center     Atomic      Atomic             Coordinates (Angstroms)
 Number     Number       Type             X           Y           Z
 ---------------------------------------------------------------------
      1          6           0        0.000000    0.000000    0.000000
      2          6           0        0.000000    0.000000    1.395457
      3          6           0        1.229738    0.000000    2.066471
      4          6           0        2.418883   -0.000091    1.311842
      5          6           0        2.443431   -0.000210   -0.076591
      6          6           0        1.205302   -0.000399   -0.725235
      7          1           0       -0.935061    0.000108    1.947666
      8          6           0        3.061798   -0.000021    3.418019
      9          6           0        1.653936    0.000154    3.456132
     10          6           0        1.008579    0.000379    4.699525
     11          6           0        1.787901    0.000132    5.857092
     12          6           0        3.192750   -0.000655    5.785567
     13          6           0        3.857559   -0.000517    4.556046
     14          1           0       -0.075470    0.000594    4.763659
     15          1           0        3.774054   -0.001311    6.702628
     16          1           0        1.175358   -0.000467   -1.810601
     17          1           0        3.380017   -0.000553   -0.623445
     18          1           0        4.939881   -0.000655    4.486618
     19          1           0       -0.943929   -0.000089   -0.536380
     20          1           0        1.304441    0.000070    6.829188
     21          8           0        3.227375    0.000014    1.900348
 ---------------------------------------------------------------------
                    Distance matrix (angstroms):
                    1          2          3          4          5
     1  C    0.000000
     2  C    1.395457   0.000000
     3  C    2.404694   1.400897   0.000000
     4  C    2.751713   2.420327   1.408379   0.000000
     5  C    2.444632   2.852592   2.462878   1.388650   0.000000
     6  C    1.406670   2.439281   2.791813   2.371172   1.397749
     7  H    2.160496   1.085944   2.168056   3.413680   3.938506
     8  C    4.588841   3.669518   2.276648   2.202117   3.548898
     9  C    3.831494   2.642325   1.452963   2.276647   3.619866
    10  C    4.806534   3.454576   2.642326   3.669517   4.986992
    11  C    6.123897   4.806534   3.831495   4.588838   5.969783
    12  C    6.608059   5.428325   4.205365   4.540164   5.909854
    13  C    5.969784   4.986991   3.619866   3.548895   4.843665
    14  H    4.764256   3.369047   2.996396   4.258736   5.456453
    15  H    7.692120   6.512261   5.288431   5.558513   6.908572
    16  H    2.158644   3.414715   3.877453   3.360953   2.148209
    17  H    3.437033   3.937065   3.443740   2.160813   1.084547
    18  H    6.673242   5.827323   4.429704   4.053966   5.201455
    19  H    1.085682   2.150116   3.391114   3.837242   3.418423
    20  H    6.952653   5.588112   4.763303   5.628774   6.999078
    21  O    3.745300   3.266629   2.004533   1.000000   2.126701
                    6          7          8          9         10
     6  C    0.000000
     7  H    3.424260   0.000000
     8  C    4.540168   4.258735   0.000000
     9  C    4.205365   2.996393   1.408378   0.000000
    10  C    5.428326   3.369045   2.420324   1.400897   0.000000
    11  C    6.608059   4.764255   2.751707   2.404695   1.395458
    12  C    6.807385   5.636338   2.371167   2.791813   2.439281
    13  C    5.909856   5.456451   1.388648   2.462878   2.852591
    14  H    5.636340   2.944267   3.413678   2.168057   1.085944
    15  H    7.859493   6.692192   3.360948   3.877453   3.414715
    16  H    1.085779   4.310272   5.558518   5.288432   6.512262
    17  H    2.177096   5.022999   4.053972   4.429707   5.827327
    18  H    6.411746   6.400096   2.160810   3.443739   3.937063
    19  H    2.157512   2.484062   5.628775   4.763302   5.588112
    20  H    7.555074   5.370719   3.837236   3.391114   2.150116
    21  O    3.313980   4.162705   1.526676   2.212730   3.571897
                   11         12         13         14         15
    11  C    0.000000
    12  C    1.406669   0.000000
    13  C    2.444628   1.397745   0.000000
    14  H    2.160497   3.424260   3.938505   0.000000
    15  H    2.158643   1.085779   2.148206   4.310272   0.000000
    16  H    7.692121   7.859494   6.908575   6.692194   8.901028
    17  H    6.673245   6.411747   5.201459   6.400100   7.336662
    18  H    3.437031   2.177094   1.084547   5.022997   2.503968
    19  H    6.952652   7.555073   6.999078   5.370720   8.640752
    20  H    1.085682   2.157512   3.418418   2.484063   2.472854
    21  O    4.210452   3.885373   2.729444   4.371193   4.833296
                   16         17         18         19         20
    16  H    0.000000
    17  H    2.503969   0.000000
    18  H    7.336662   5.342838   0.000000
    19  H    2.472855   4.324822   7.736260   0.000000
[...]
      8          6           0        3.061798   -0.000021    3.418019
      9          6           0        1.653936    0.000154    3.456132
     10          6           0        1.008579    0.000379    4.699525
     11          6           0        1.787901    0.000132    5.857092
     12          6           0        3.192750   -0.000655    5.785567
     13          6           0        3.857559   -0.000517    4.556046
     14          1           0       -0.075470    0.000594    4.763659
     15          1           0        3.774054   -0.001311    6.702628
     16          1           0        1.175358   -0.000467   -1.810601
     17          1           0        3.380017   -0.000553   -0.623445
     18          1           0        4.939881   -0.000655    4.486618
     19          1           0       -0.943929   -0.000089   -0.536380
     20          1           0        1.304441    0.000070    6.829188
     21          8           0        4.359264    0.000161    2.724258
 ---------------------------------------------------------------------
                    Distance matrix (angstroms):
                    1          2          3          4          5
     1  C    0.000000
     2  C    1.395457   0.000000
     3  C    2.404694   1.400897   0.000000
     4  C    2.751713   2.420327   1.408379   0.000000
     5  C    2.444632   2.852592   2.462878   1.388650   0.000000
     6  C    1.406670   2.439281   2.791813   2.371172   1.397749
     7  H    2.160496   1.085944   2.168056   3.413680   3.938506
     8  C    4.588841   3.669518   2.276648   2.202117   3.548898
     9  C    3.831494   2.642325   1.452963   2.276647   3.619866
    10  C    4.806534   3.454576   2.642326   3.669517   4.986992
    11  C    6.123897   4.806534   3.831495   4.588838   5.969783
    12  C    6.608059   5.428325   4.205365   4.540164   5.909854
    13  C    5.969784   4.986991   3.619866   3.548895   4.843665
    14  H    4.764256   3.369047   2.996396   4.258736   5.456453
    15  H    7.692120   6.512261   5.288431   5.558513   6.908572
    16  H    2.158644   3.414715   3.877453   3.360953   2.148209
    17  H    3.437033   3.937065   3.443740   2.160813   1.084547
    18  H    6.673242   5.827323   4.429704   4.053966   5.201455
    19  H    1.085682   2.150116   3.391114   3.837242   3.418423
    20  H    6.952653   5.588112   4.763303   5.628774   6.999078
    21  O    5.140502   4.557290   3.197909   2.400000   3.393401
                    6          7          8          9         10
     6  C    0.000000
     7  H    3.424260   0.000000
     8  C    4.540168   4.258735   0.000000
     9  C    4.205365   2.996393   1.408378   0.000000
    10  C    5.428326   3.369045   2.420324   1.400897   0.000000
    11  C    6.608059   4.764255   2.751707   2.404695   1.395458
    12  C    6.807385   5.636338   2.371167   2.791813   2.439281
    13  C    5.909856   5.456451   1.388648   2.462878   2.852591
    14  H    5.636340   2.944267   3.413678   2.168057   1.085944
    15  H    7.859493   6.692192   3.360948   3.877453   3.414715
    16  H    1.085779   4.310272   5.558518   5.288432   6.512262
    17  H    2.177096   5.022999   4.053972   4.429707   5.827327
    18  H    6.411746   6.400096   2.160810   3.443739   3.937063
    19  H    2.157512   2.484062   5.628775   4.763302   5.588112
    20  H    7.555074   5.370719   3.837236   3.391114   2.150116
    21  O    4.674021   5.350979   1.471300   2.802578   3.889573
                   11         12         13         14         15
    11  C    0.000000
    12  C    1.406669   0.000000
    13  C    2.444628   1.397745   0.000000
    14  H    2.160497   3.424260   3.938505   0.000000
    15  H    2.158643   1.085779   2.148206   4.310272   0.000000
    16  H    7.692121   7.859494   6.908575   6.692194   8.901028
    17  H    6.673245   6.411747   5.201459   6.400100   7.336662
    18  H    3.437031   2.177094   1.084547   5.022997   2.503968
    19  H    6.952652   7.555073   6.999078   5.370720   8.640752
    20  H    1.085682   2.157512   3.418418   2.484063   2.472854
    21  O    4.052969   3.276030   1.899252   4.881191   4.021182
                   16         17         18         19         20
    16  H    0.000000
    17  H    2.503969   0.000000
    18  H    7.336662   5.342838   0.000000
    19  H    2.472855   4.324822   7.736260   0.000000
    20  H    8.640753   7.736263   4.324819   7.701088   0.000000
    21  O    5.540957   3.487985   1.855540   6.225401   5.116874
                   21
    21  O    0.000000
 Symmetry turned off by external request.
 Stoichiometry    C12H8O
 Framework group  C1[X(C12H8O)]
 Deg. of freedom    57
 Full point group                 C1      NOp   1
 Rotational constants (GHZ):           1.9576823           0.5898709           0.4532898
 Standard basis: 6-31++G(d,p) (6D, 7F)
   295 basis functions,   480 primitive gaussians,   295 cartesian basis functions
    44 alpha electrons       44 beta electrons
       nuclear repulsion energy       686.1354719748 Hartrees.
 NAtoms=   21 NActive=   21 NUniq=   21 SFac= 1.00D+00 NAtFMM=   60 NAOKFM=F Big=F
 Integral buffers will be    131072 words long.
 Raffenetti 2 integral format.
 Two-electron integral symmetry is turned off.
 One-electron integrals computed using PRISM.
 NBasis=   295 RedAO= T EigKep=  1.97D-06  NBF=   295
 NBsUse=   291 1.00D-06 EigRej=  6.71D-07 NBFU=   291
 Initial guess from the checkpoint file:  "C:\Users\Administrator\Desktop\dataset_dft\C12H8O1.chk"
 B after Tr=     0.022490    0.000002    0.003566
         Rot=    1.000000    0.000000    0.000857    0.000000 Ang=  -0.10 deg.
 ExpMin= 3.60D-02 ExpMax= 5.48D+03 ExpMxC= 8.25D+02 IAcc=3 IRadAn=         5 AccDes= 0.00D+00
 Harris functional with IExCor=  402 and IRadAn=       5 diagonalized for initial guess.
 HarFok:  IExCor=  402 AccDes= 0.00D+00 IRadAn=         5 IDoV= 1 UseB2=F ITyADJ=14
 ICtDFT=  3500011 ScaDFX=  1.000000  1.000000  1.000000  1.000000
 FoFCou: FMM=F IPFlag=           0 FMFlag=      100000 FMFlg1=           0
         NFxFlg=           0 DoJE=T BraDBF=F KetDBF=T FulRan=T
         wScrn=  0.000000 ICntrl=       500 IOpCl=  0 I1Cent=   200000004 NGrid=           0
         NMat0=    1 NMatS0=      1 NMatT0=    0 NMatD0=    1 NMtDS0=    0 NMtDT0=    0
 Symmetry not used in FoFCou.
 Requested convergence on RMS density matrix=1.00D-08 within 128 cycles.
 Requested convergence on MAX density matrix=1.00D-06.
 Requested convergence on             energy=1.00D-06.
 No special actions if energy rises.
 SCF Done:  E(RB3LYP) =  -537.089521555     A.U. after   14 cycles
            NFock= 14  Conv=0.64D-08     -V/T= 2.0096
 Variable Step   Value    
 -------- ---- -----------
    20      20    4.724315
 ---------------------------------------------------------------------------------------------------
                            Z-MATRIX (ANGSTROMS AND DEGREES)
   CD    Cent   Atom    N1       Length/X        N2       Alpha/Y        N3        Beta/Z          J
 ---------------------------------------------------------------------------------------------------
      1      1  C 
      2      2  C        1   1.395457(     1)
      3      3  C        2   1.400897(     2)      1  118.619(    21)
      4      4  C        3   1.408379(     3)      2  118.982(    22)      1   -0.004(    40)      0
      5      5  C        4   1.388650(     4)      3  123.412(    23)      2   -0.001(    41)      0
      6      6  C        5   1.397749(     5)      4  116.637(    24)      3   -0.007(    42)      0
      7      7  H        2   1.085944(     6)      1  120.564(    25)      6 -179.988(    43)      0
      8      8  C        4   2.202117(     7)      3   74.576(    26)      2 -179.999(    44)      0
      9      9  C        8   1.408378(     8)      4   74.576(    27)      3   -0.005(    45)      0
     10     10  C        9   1.400897(     9)      8  118.981(    28)      4 -179.997(    46)      0
     11     11  C       10   1.395458(    10)      9  118.619(    29)      8   -0.013(    47)      0
     12     12  C       11   1.406669(    11)     10  121.036(    30)      9   -0.015(    48)      0
     13     13  C        8   1.388648(    12)      4  162.012(    31)      3  179.931(    49)      0
     14     14  H       10   1.085944(    13)      9  120.816(    32)      8  179.995(    50)      0
     15     15  H       12   1.085779(    14)     11  119.455(    33)     10 -179.971(    51)      0
     16     16  H        6   1.085779(    15)      5  119.230(    34)      4  179.998(    52)      0
     17     17  H        5   1.084547(    16)      4  121.293(    35)      3 -179.983(    53)      0
     18     18  H       13   1.084547(    17)      8  121.293(    36)      4    0.073(    54)      0
     19     19  H        1   1.085682(    18)      2  119.607(    37)      3  179.995(    55)      0
     20     20  H       11   1.085682(    19)     10  119.607(    38)      9 -179.986(    56)      0
     21     21  O        4   2.500000(    20)      3  111.550(    39)      2  179.994(    57)      0
 ---------------------------------------------------------------------------------------------------
                         Z-Matrix orientation:                         
 ---------------------------------------------------------------------
 Center     Atomic      Atomic             Coordinates (Angstroms)
 Number     Number       Type             X           Y           Z
 ---------------------------------------------------------------------
      1          6           0        0.000000    0.000000    0.000000
      2          6           0        0.000000    0.000000    1.395457
      3          6           0        1.229738    0.000000    2.066471
      4          6           0        2.418883   -0.000091    1.311842
      5          6           0        2.443431   -0.000210   -0.076591
      6          6           0        1.205302   -0.000399   -0.725235
      7          1           0       -0.935061    0.000108    1.947666
      8          6           0        3.061798   -0.000021    3.418019
      9          6           0        1.653936    0.000154    3.456132
     10          6           0        1.008579    0.000379    4.699525
     11          6           0        1.787901    0.000132    5.857092
     12          6           0        3.192750   -0.000655    5.785567
     13          6           0        3.857559   -0.000517    4.556046
     14          1           0       -0.075470    0.000594    4.763659
     15          1           0        3.774054   -0.001311    6.702628
     16          1           0        1.175358   -0.000467   -1.810601
     17          1           0        3.380017   -0.000553   -0.623445
     18          1           0        4.939881   -0.000655    4.486618
     19          1           0       -0.943929   -0.000089   -0.536380
     20          1           0        1.304441    0.000070    6.829188
     21          8           0        4.440114    0.000171    2.783108
 ---------------------------------------------------------------------
                    Distance matrix (angstroms):
                    1          2          3          4          5
     1  C    0.000000
     2  C    1.395457   0.000000
     3  C    2.404694   1.400897   0.000000
     4  C    2.751713   2.420327   1.408379   0.000000
     5  C    2.444632   2.852592   2.462878   1.388650   0.000000
     6  C    1.406670   2.439281   2.791813   2.371172   1.397749
     7  H    2.160496   1.085944   2.168056   3.413680   3.938506
     8  C    4.588841   3.669518   2.276648   2.202117   3.548898
     9  C    3.831494   2.642325   1.452963   2.276647   3.619866
    10  C    4.806534   3.454576   2.642326   3.669517   4.986992
    11  C    6.123897   4.806534   3.831495   4.588838   5.969783
    12  C    6.608059   5.428325   4.205365   4.540164   5.909854
    13  C    5.969784   4.986991   3.619866   3.548895   4.843665
    14  H    4.764256   3.369047   2.996396   4.258736   5.456453
    15  H    7.692120   6.512261   5.288431   5.558513   6.908572
    16  H    2.158644   3.414715   3.877453   3.360953   2.148209
    17  H    3.437033   3.937065   3.443740   2.160813   1.084547
    18  H    6.673242   5.827323   4.429704   4.053966   5.201455
    19  H    1.085682   2.150116   3.391114   3.837242   3.418423
    20  H    6.952653   5.588112   4.763303   5.628774   6.999078
    21  O    5.240258   4.651901   3.289390   2.500000   3.487782
                    6          7          8          9         10
     6  C    0.000000
     7  H    3.424260   0.000000
     8  C    4.540168   4.258735   0.000000
     9  C    4.205365   2.996393   1.408378   0.000000
    10  C    5.428326   3.369045   2.420324   1.400897   0.000000
    11  C    6.608059   4.764255   2.751707   2.404695   1.395458
    12  C    6.807385   5.636338   2.371167   2.791813   2.439281
    13  C    5.909856   5.456451   1.388648   2.462878   2.852591
    14  H    5.636340   2.944267   3.413678   2.168057   1.085944
    15  H    7.859493   6.692192   3.360948   3.877453   3.414715
    16  H    1.085779   4.310272   5.558518   5.288432   6.512262
    17  H    2.177096   5.022999   4.053972   4.429707   5.827327
    18  H    6.411746   6.400096   2.160810   3.443739   3.937063
    19  H    2.157512   2.484062   5.628775   4.763302   5.588112
    20  H    7.555074   5.370719   3.837236   3.391114   2.150116
    21  O    4.772052   5.439712   1.517519   2.866313   3.930405
                   11         12         13         14         15
    11  C    0.000000
    12  C    1.406669   0.000000
    13  C    2.444628   1.397745   0.000000
    14  H    2.160497   3.424260   3.938505   0.000000
    15  H    2.158643   1.085779   2.148206   4.310272   0.000000
    16  H    7.692121   7.859494   6.908575   6.692194   8.901028
    17  H    6.673245   6.411747   5.201459   6.400100   7.336662
    18  H    3.437031   2.177094   1.084547   5.022997   2.503968
    19  H    6.952652   7.555073   6.999078   5.370720   8.640752
    20  H    1.085682   2.157512   3.418418   2.484063   2.472854
    21  O    4.060001   3.251258   1.866194   4.930829   3.975710
                   16         17         18         19         20
    16  H    0.000000
    17  H    2.503969   0.000000
    18  H    7.336662   5.342838   0.000000
    19  H    2.472855   4.324822   7.736260   0.000000
    20  H    8.640753   7.736263   4.324819   7.701088   0.000000
    21  O    5.635672   3.567690   1.775306   6.325102   5.118907
                   21
    21  O    0.000000
 Symmetry turned off by external request.
 Stoichiometry    C12H8O
 Framework group  C1[X(C12H8O)]
 Deg. of freedom    57
 Full point group                 C1      NOp   1
 Rotational constants (GHZ):           1.9286045           0.5882581           0.4507665
 Standard basis: 6-31++G(d,p) (6D, 7F)
   295 basis functions,   480 primitive gaussians,   295 cartesian basis functions
    44 alpha electrons       44 beta electrons
       nuclear repulsion energy       684.5020803285 Hartrees.
 NAtoms=   21 NActive=   21 NUniq=   21 SFac= 1.00D+00 NAtFMM=   60 NAOKFM=F Big=F
 Integral buffers will be    131072 words long.
 Raffenetti 2 integral format.
 Two-electron integral symmetry is turned off.
 One-electron integrals computed using PRISM.
 NBasis=   295 RedAO= T EigKep=  1.99D-06  NBF=   295
 NBsUse=   291 1.00D-06 EigRej=  6.73D-07 NBFU=   291
 Initial guess from the checkpoint file:  "C:\Users\Administrator\Desktop\dataset_dft\C12H8O1.chk"
 B after Tr=     0.022465    0.000002    0.003575
         Rot=    1.000000    0.000000    0.000853    0.000000 Ang=  -0.10 deg.
 ExpMin= 3.60D-02 ExpMax= 5.48D+03 ExpMxC= 8.25D+02 IAcc=3 IRadAn=         5 AccDes= 0.00D+00
 Harris functional with IExCor=  402 and IRadAn=       5 diagonalized for initial guess.
 HarFok:  IExCor=  402 AccDes= 0.00D+00 IRadAn=         5 IDoV= 1 UseB2=F ITyADJ=14
 ICtDFT=  3500011 ScaDFX=  1.000000  1.000000  1.000000  1.000000
 FoFCou: FMM=F IPFlag=           0 FMFlag=      100000 FMFlg1=           0
         NFxFlg=           0 DoJE=T BraDBF=F KetDBF=T FulRan=T
         wScrn=  0.000000 ICntrl=       500 IOpCl=  0 I1Cent=   200000004 NGrid=           0
         NMat0=    1 NMatS0=      1 NMatT0=    0 NMatD0=    1 NMtDS0=    0 NMtDT0=    0
 Symmetry not used in FoFCou.
 Requested convergence on RMS density matrix=1.00D-08 within 128 cycles.
 Requested convergence on MAX density matrix=1.00D-06.
 Requested convergence on             energy=1.00D-06.
 No special actions if energy rises.
 SCF Done:  E(RB3LYP) =  -537.057503144     A.U. after   15 cycles
            NFock= 15  Conv=0.29D-08     -V/T= 2.0095
 Scan completed.
 
 Summary of the potential surface scan:
   N      B20         SCF    
 ----  ---------  -----------
    1     0.5000   -530.99551
    2     0.6000   -533.91320
    3     0.7000   -535.50666
    4     0.8000   -536.37846
    5     0.9000   -536.85599
    6     1.0000   -537.11653
    7     1.1000   -537.25564
    8     1.2000   -537.32534
    9     1.3000   -537.35454
   10     1.4000   -537.35971
   11     1.5000   -537.35042
   12     1.6000   -537.33231
   13     1.7000   -537.30875
   14     1.8000   -537.28170
   15     1.9000   -537.25233
   16     2.0000   -537.22129
   17     2.1000   -537.18904
   18     2.2000   -537.15598
   19     2.3000   -537.12260
   20     2.4000   -537.08952
   21     2.5000   -537.05750
 ----  ---------  -----------
  
 1|1|UNPC-BF-202112021916|Scan|RB3LYP|6-31++G(d,p)|C12H8O1|ADMINISTRATO
 R|19-Mar-2023|1||# scan b3lyp/6-31++g(d,p) nosymm||Title Card Required
 ||0,1|C|C,1,B1|C,2,B2,1,A1|C,3,B3,2,A2,1,D1,0|C,4,B4,3,A3,2,D2,0|C,5,B
 5,4,A4,3,D3,0|H,2,B6,1,A5,6,D4,0|C,4,B7,3,A6,2,D5,0|C,8,B8,4,A7,3,D6,0
 |C,9,B9,8,A8,4,D7,0|C,10,B10,9,A9,8,D8,0|C,11,B11,10,A10,9,D9,0|C,8,B1
 2,4,A11,3,D10,0|H,10,B13,9,A12,8,D11,0|H,12,B14,11,A13,10,D12,0|H,6,B1
 5,5,A14,4,D13,0|H,5,B16,4,A15,3,D14,0|H,13,B17,8,A16,4,D15,0|H,1,B18,2
 ,A17,3,D16,0|H,11,B19,10,A18,9,D17,0|O,4,B20,3,A19,2,D18,0||B1=1.39545
 745|B2=1.40089729|B3=1.4083787|B4=1.38864986|B5=1.39774903|B6=1.085943
 98|B7=2.20211745|B8=1.40837811|B9=1.40089743|B10=1.39545761|B11=1.4066
 6925|B12=1.38864776|B13=1.08594424|B14=1.08577902|B15=1.08577908|B16=1
 .08454695|B17=1.08454689|B18=1.08568159|B19=1.08568165|B20=0.5,s,20,0.
 1|A1=118.61933377|A2=118.98154442|A3=123.4120574|A4=116.63667519|A5=12
 0.56435876|A6=74.57580884|A7=74.57577518|A8=118.98130524|A9=118.619322
 53|A10=121.03551155|A11=162.01191875|A12=120.81631507|A13=119.45512689
 |A14=119.2299752|A15=121.29275435|A16=121.29263012|A17=119.60706413|A1
 8=119.60706546|A19=111.54977318|D1=-0.00424493|D2=-0.00137068|D3=-0.00
 742758|D4=-179.9876218|D5=-179.9988104|D6=-0.00456832|D7=-179.997326|D
 8=-0.01349916|D9=-0.01528096|D10=179.93149628|D11=179.99538078|D12=-17
 9.97094442|D13=179.99812359|D14=-179.98301439|D15=0.0728066|D16=179.99
 461131|D17=-179.98604297|D18=179.99412726||Version=EM64W-G16RevA.03|HF
 =-530.9955147,-533.9131966,-535.5066571,-536.3784644,-536.8559907,-537
 .1165284,-537.2556396,-537.3253358,-537.3545387,-537.3597101,-537.3504
 166,-537.3323092,-537.3087459,-537.2817041,-537.2523295,-537.2212914,-
 537.189037,-537.1559759,-537.1225977,-537.0895216,-537.0575031|RMSD=6.
 034e-009,9.832e-009,4.499e-009,9.771e-009,6.260e-009,5.443e-009,8.218e
 -009,5.246e-009,3.963e-009,3.936e-009,4.525e-009,4.187e-009,3.933e-009
 ,3.837e-009,2.698e-009,6.220e-009,4.530e-009,3.151e-009,3.708e-009,6.4
 45e-009,2.901e-009|PG=C01 [X(C12H8O1)]||@


 MICHAEL FARADAY, ASKED BY A POLITICIAN WHAT GOOD
 HIS ELECTRICAL DISCOVERIES WERE, REPLIED 
 "AT PRESENT I DO NOT KNOW, BUT ONE DAY YOU WILL BE
 ABLE TO TAX THEM."
 Job cpu time:       0 days  0 hours 55 minutes 12.0 seconds.
 Elapsed time:       0 days  0 hours 54 minutes 40.9 seconds.
 File lengths (MBytes):  RWF=     57 Int=      0 D2E=      0 Chk=      8 Scr=      1
 Normal termination of Gaussian 16 at Sun Mar 19 15:34:29 2023.
