 Entering Link 1 = I:\G16W\l1.exe PID=     11152.
  
 Copyright (c) 1988,1990,1992,1993,1995,1998,2003,2009,2016,
            Gaussian, Inc.  All Rights Reserved.
  
 This is part of the Gaussian(R) 16 program.  It is based on
 the Gaussian(R) 09 system (copyright 2009, Gaussian, Inc.),
 the Gaussian(R) 03 system (copyright 2003, Gaussian, Inc.),
 the Gaussian(R) 98 system (copyright 1998, Gaussian, Inc.),
 the Gaussian(R) 94 system (copyright 1995, Gaussian, Inc.),
 the Gaussian 92(TM) system (copyright 1992, Gaussian, Inc.),
 the Gaussian 90(TM) system (copyright 1990, Gaussian, Inc.),
 the Gaussian 88(TM) system (copyright 1988, Gaussian, Inc.),
 the Gaussian 86(TM) system (copyright 1986, Carnegie Mellon
 University), and the Gaussian 82(TM) system (copyright 1983,
 Carnegie Mellon University). Gaussian is a federally registered
 trademark of Gaussian, Inc.
  
 This software contains proprietary and confidential information,
 including trade secrets, belonging to Gaussian, Inc.
  
 This software is provided under written license and may be
 used, copied, transmitted, or stored only in accord with that
 written license.
  
 The following legend is applicable only to US Government
 contracts under FAR:
  
                    RESTRICTED RIGHTS LEGEND
  
 Use, reproduction and disclosure by the US Government is
 subject to restrictions as set forth in subparagraphs (a)
 and (c) of the Commercial Computer Software - Restricted
 Rights clause in FAR 52.227-19.
  
 Gaussian, Inc.
 340 Quinnipiac St., Bldg. 40, Wallingford CT 06492
  
  
 ---------------------------------------------------------------
 Warning -- This program may not be used in any manner that
 competes with the business of Gaussian, Inc. or will provide
 assistance to any competitor of Gaussian, Inc.  The licensee
 of this program is prohibited from giving any competitor of
 Gaussian, Inc. access to this program.  By using this program,
 the user acknowledges that Gaussian, Inc. is engaged in the
 business of creating and licensing software in the field of
 computational chemistry and represents and warrants to the
 licensee that it is not a competitor of Gaussian, Inc. and that
 it will not use this program in any manner prohibited above.
 ---------------------------------------------------------------
  

 Cite this work as:
 Gaussian 16, Revision A.03,
 M. J. Frisch, G. W. Trucks, H. B. Schlegel, G. E. Scuseria, 
 M. A. Robb, J. R. Cheeseman, G. Scalmani, V. Barone, 
 G. A. Petersson, H. Nakatsuji, X. Li, M. Caricato, A. V. Marenich, 
 J. Bloino, B. G. Janesko, R. Gomperts, B. Mennucci, H. P. Hratchian, 
 J. V. Ortiz, A. F. Izmaylov, J. L. Sonnenberg, D. Williams-Young, 
 F. Ding, F. Lipparini, F. Egidi, J. Goings, B. Peng, A. Petrone, 
 T. Henderson, D. Ranasinghe, V. G. Zakrzewski, J. Gao, N. Rega, 
 G. Zheng, W. Liang, M. Hada, M. Ehara, K. Toyota, R. Fukuda, 
 J. Hasegawa, M. Ishida, T. Nakajima, Y. Honda, O. Kitao, H. Nakai, 
 T. Vreven, K. Throssell, J. A. Montgomery, Jr., J. E. Peralta, 
 F. Ogliaro, M. J. Bearpark, J. J. Heyd, E. N. Brothers, K. N. Kudin, 
 V. N. Staroverov, T. A. Keith, R. Kobayashi, J. Normand, 
 K. Raghavachari, A. P. Rendell, J. C. Burant, S. S. Iyengar, 
 J. Tomasi, M. Cossi, J. M. Millam, M. Klene, C. Adamo, R. Cammi, 
 J. W. Ochterski, R. L. Martin, K. Morokuma, O. Farkas, 
 J. B. Foresman, and D. J. Fox, Gaussian, Inc., Wallingford CT, 2016.
 
 ******************************************
 Gaussian 16:  EM64W-G16RevA.03 17-Dec-2016
                21-Mar-2023 
 ******************************************
 %nprocshared=16
 Will use up to   16 processors via shared memory.
 %mem=150MW
 %chk=C:\Users\Administrator\Desktop\dataset_dft\C8H6O3\C8H6O3.chk
 --------------------------------
 # scan b3lyp/6-31++g(d,p) nosymm
 --------------------------------
 1/38=1,60=1,172=1/1,8;
 2/12=2,15=1,17=6,18=5,29=3,40=1/2;
 3/5=1,6=6,7=1111,11=2,25=1,30=1,74=-5/1,2,3;
 4//1;
 5/5=2,38=5/2;
 6/7=2,8=2,9=2,10=2,18=1,28=1/1;
 1/60=1/8(1);
 99/9=1/99;
 2/15=1,29=3/2;
 3/5=1,6=6,7=1111,11=2,25=1,30=1,74=-5/1,2,3;
 4/5=5,16=3,69=1/1;
 5/5=2,38=5/2;
 1/60=1/8(-4);
 99/9=1/99;
 -------------------
 Title Card Required
 -------------------
 Symbolic Z-matrix:
 Charge =  0 Multiplicity = 1
 C(PDBName=C,ResName=MOL,ResNum=1)
 C(PDBName=C,ResName=MOL,ResNum=1) 1    B1
 C(PDBName=C,ResName=MOL,ResNum=1) 2    B2       1    A1
 C(PDBName=C,ResName=MOL,ResNum=1) 3    B3       2    A2       1    D1       0
 C(PDBName=C,ResName=MOL,ResNum=1) 4    B4       3    A3       2    D2       0
 C(PDBName=C,ResName=MOL,ResNum=1) 5    B5       4    A4       3    D3       0
 H(PDBName=H,ResName=MOL,ResNum=1) 3    B6       2    A5       1    D4       0
 H(PDBName=H,ResName=MOL,ResNum=1) 1    B7       2    A6       3    D5       0
 C(PDBName=C,ResName=MOL,ResNum=1) 6    B8       5    A7       4    D6       0
 H(PDBName=H,ResName=MOL,ResNum=1) 9    B9       6    A8       5    D7       0
 H(PDBName=H,ResName=MOL,ResNum=1) 9    B10      6    A9       5    D8       0
 H(PDBName=H,ResName=MOL,ResNum=1) 9    B11      6    A10      5    D9       0
 C(PDBName=C,ResName=MOL,ResNum=1) 2    B12      1    A11      6    D10      0
 H(PDBName=H,ResName=MOL,ResNum=1) 13   B13      2    A12      1    D11      0
 H(PDBName=H,ResName=MOL,ResNum=1) 13   B14      2    A13      1    D12      0
 H(PDBName=H,ResName=MOL,ResNum=1) 13   B15      2    A14      1    D13      0
 C(PDBName=C,ResName=MOL,ResNum=1) 4    B16      3    A15      2    D14      0
 H(PDBName=H,ResName=MOL,ResNum=1) 17   B17      4    A16      3    D15      0
 H(PDBName=H,ResName=MOL,ResNum=1) 17   B18      4    A17      3    D16      0
 H(PDBName=H,ResName=MOL,ResNum=1) 17   B19      4    A18      3    D17      0
 O(PDBName=O,ResName=MOL,ResNum=1) 5    B20      4    A19      3    D18      0
 H(PDBName=H,ResName=MOL,ResNum=1) 21   B21      5    A20      4    D19      0
       Variables:
  B1                    1.40172                  
  B2                    1.40679                  
  B3                    1.40091                  
  B4                    1.40575                  
  B5                    1.40429                  
  B6                    1.08775                  
  B7                    1.08756                  
  B8                    1.51368                  
  B9                    1.0941                   
  B10                   1.10014                  
  B11                   1.10014                  
  B12                   1.51477                  
  B13                   1.09777                  
  B14                   1.09784                  
  B15                   1.09526                  
  B16                   1.     Scan 20    0.1    
  B17                   1.09676                  
  B18                   1.09457                  
  B19                   1.09672                  
  B20                   1.40547                  
  B21                   0.97444                  
  A1                  118.05489                  
  A2                  122.11195                  
  A3                  117.82388                  
  A4                  122.15571                  
  A5                  119.40659                  
  A6                  119.42694                  
  A7                  120.96328                  
  A8                  110.52751                  
  A9                  112.22033                  
  A10                 112.21959                  
  A11                 121.20324                  
  A12                 111.48295                  
  A13                 111.4815                   
  A14                 111.19313                  
  A15                 122.00458                  
  A16                 111.24154                  
  A17                 110.7687                   
  A18                 111.24277                  
  A19                 115.75361                  
  A20                 112.62722                  
  D1                   -0.00853                  
  D2                   -0.00133                  
  D3                    0.00703                  
  D4                  179.98578                  
  D5                 -179.98918                  
  D6                  179.98939                  
  D7                 -179.99525                  
  D8                   60.71537                  
  D9                  -60.70594                  
  D10                -179.96336                  
  D11                -120.59576                  
  D12                 119.65333                  
  D13                  -0.46378                  
  D14                -179.99769                  
  D15                 120.65588                  
  D16                  -0.10529                  
  D17                -120.87651                  
  D18                -179.99765                  
  D19                -179.99346                  
 
 Center=      1.25793021     -0.00029771      0.51492909
 Residue   1 PDB Number     1_0 MOL charge    0.00000000 layers R        AvRTP=      0.00000000    180.00000000     90.00000000
 Scan the potential surface.
 Variable   Value     No. Steps Step-Size
 -------- ----------- --------- ---------
    16       1.000000      20      0.1000
 A total of     21 points will be computed.
 ---------------------------------------------------------------------------------------------------
                            Z-MATRIX (ANGSTROMS AND DEGREES)
   CD    Cent   Atom    N1       Length/X        N2       Alpha/Y        N3        Beta/Z          J
 ---------------------------------------------------------------------------------------------------
      1      1  C 
      2      2  C        1   1.401724(     1)
      3      3  C        2   1.406789(     2)      1  118.055(    22)
      4      4  C        3   1.400915(     3)      2  122.112(    23)      1   -0.009(    42)      0
      5      5  C        4   1.405746(     4)      3  117.824(    24)      2   -0.001(    43)      0
      6      6  C        5   1.404289(     5)      4  122.156(    25)      3    0.007(    44)      0
      7      7  H        3   1.087747(     6)      2  119.407(    26)      1  179.986(    45)      0
      8      8  H        1   1.087556(     7)      2  119.427(    27)      3 -179.989(    46)      0
      9      9  C        6   1.513682(     8)      5  120.963(    28)      4  179.989(    47)      0
     10     10  H        9   1.094102(     9)      6  110.528(    29)      5 -179.995(    48)      0
     11     11  H        9   1.100142(    10)      6  112.220(    30)      5   60.715(    49)      0
     12     12  H        9   1.100143(    11)      6  112.220(    31)      5  -60.706(    50)      0
     13     13  C        2   1.514771(    12)      1  121.203(    32)      6 -179.963(    51)      0
     14     14  H       13   1.097772(    13)      2  111.483(    33)      1 -120.596(    52)      0
     15     15  H       13   1.097837(    14)      2  111.482(    34)      1  119.653(    53)      0
     16     16  H       13   1.095261(    15)      2  111.193(    35)      1   -0.464(    54)      0
     17     17  C        4   1.000000(    16)      3  122.005(    36)      2 -179.998(    55)      0
     18     18  H       17   1.096757(    17)      4  111.242(    37)      3  120.656(    56)      0
     19     19  H       17   1.094569(    18)      4  110.769(    38)      3   -0.105(    57)      0
     20     20  H       17   1.096722(    19)      4  111.243(    39)      3 -120.877(    58)      0
     21     21  O        5   1.405465(    20)      4  115.754(    40)      3 -179.998(    59)      0
     22     22  H       21   0.974436(    21)      5  112.627(    41)      4 -179.993(    60)      0
 ---------------------------------------------------------------------------------------------------
                         Z-Matrix orientation:                         
 ---------------------------------------------------------------------
 Center     Atomic      Atomic             Coordinates (Angstroms)
 Number     Number       Type             X           Y           Z
 ---------------------------------------------------------------------
      1          6           0        0.000000    0.000000    0.000000
      2          6           0        0.000000    0.000000    1.401724
      3          6           0        1.241488    0.000000    2.063361
      4          6           0        2.456750   -0.000177    1.366439
      5          6           0        2.407463   -0.000387   -0.038442
      6          6           0        1.193111   -0.000277   -0.743693
      7          1           0        1.267147    0.000235    3.150805
      8          1           0       -0.947242    0.000179   -0.534331
      9          6           0        1.171532   -0.000268   -2.257221
     10          1           0        0.141536   -0.000091   -2.626230
     11          1           0        1.663642   -0.888595   -2.680325
     12          1           0        1.663947    0.887899   -2.680306
     13          6           0       -1.295637   -0.000528    2.186489
     14          1           0       -1.370506    0.878733    2.839481
     15          1           0       -1.377295   -0.888347    2.827079
     16          1           0       -2.163344    0.007384    1.518195
     17          6           0        3.338364   -0.000210    1.838410
     18          1           0        3.934601   -0.879671    1.566517
     19          1           0        3.197511    0.001788    2.923876
     20          1           0        3.936354    0.877041    1.563389
     21          8           0        3.651135   -0.000610   -0.693127
     22          1           0        3.563909   -0.000647   -1.663651
 ---------------------------------------------------------------------
                    Distance matrix (angstroms):
                    1          2          3          4          5
     1  C    0.000000
     2  C    1.401724   0.000000
     3  C    2.408059   1.406789   0.000000
     4  C    2.811188   2.457003   1.400915   0.000000
     5  C    2.407769   2.805344   2.403554   1.405746   0.000000
     6  C    1.405914   2.454858   2.807470   2.459561   1.404289
     7  H    3.396062   2.159849   1.087747   2.144555   3.386978
     8  H    1.087556   2.155359   3.396843   3.898729   3.391158
     9  C    2.543135   3.841922   4.321148   3.844828   2.539784
    10  H    2.630041   4.030439   4.816861   4.615368   3.439632
    11  H    3.277414   4.496713   4.844623   4.218366   2.884740
    12  H    3.277366   4.496671   4.844503   4.218218   2.884668
    13  C    2.541537   1.514771   2.540110   3.840949   4.320100
    14  H    3.273089   2.172005   2.863048   4.194070   4.829942
    15  H    3.267794   2.172036   2.868876   4.197882   4.829501
    16  H    2.642920   2.166490   3.448208   4.622592   4.828608
    17  C    3.811092   3.366804   2.108908   1.000000   2.095030
    18  H    4.325376   4.035104   2.876375   1.731354   2.383524
    19  H    4.332797   3.541332   2.136941   1.724628   3.065862
    20  H    4.325305   4.036114   2.877755   1.731337   2.381858
    21  O    3.716344   4.209416   3.661233   2.380834   1.405465
    22  H    3.933088   4.700848   4.391385   3.226027   1.994661
                    6          7          8          9         10
     6  C    0.000000
     7  H    3.895202   0.000000
     8  H    2.150569   4.299273   0.000000
     9  C    1.513682   5.408872   2.730853   0.000000
    10  H    2.156329   5.885672   2.358279   1.094102   0.000000
    11  H    2.181984   5.911794   3.494557   1.100142   1.763284
    12  H    2.181975   5.911621   3.494506   1.100143   1.763289
    13  C    3.844455   2.738205   2.743035   5.082665   5.022721
    14  H    4.492652   2.797480   3.511924   5.762896   5.738692
    15  H    4.488437   2.808461   3.503355   5.756328   5.730133
    16  H    4.047467   3.799175   2.385753   5.037383   4.742234
    17  C    3.356987   2.452004   4.898604   4.633503   5.491149
    18  H    3.691364   3.224828   5.387030   4.798841   5.721899
    19  H    4.179555   1.943658   5.397979   5.563125   6.335824
    20  H    3.690215   3.226971   5.386912   4.796975   5.720393
    21  O    2.458543   4.523187   4.601118   2.931692   4.006765
    22  H    2.543031   5.334239   4.650360   2.464912   3.555164
                   11         12         13         14         15
    11  H    0.000000
    12  H    1.776494   0.000000
    13  C    5.764709   5.764906   0.000000
    14  H    6.541999   6.298892   1.097772   0.000000
    15  H    6.291168   6.537239   1.097837   1.767137   0.000000
    16  H    5.751188   5.748989   1.095261   1.770208   1.770137
    17  C    4.900294   4.900123   4.647055   4.893684   4.899357
    18  H    4.815911   5.129881   5.339723   5.732066   5.459426
    19  H    5.878146   5.877403   4.553254   4.652197   4.661605
    20  H    5.127552   4.813823   5.341545   5.458129   5.740067
    21  O    2.947473   2.947413   5.723875   6.202374   6.202019
    22  H    2.330899   2.330870   6.199900   6.737949   6.735738
                   16         17         18         19         20
    16  H    0.000000
    17  C    5.511024   0.000000
    18  H    6.162316   1.096757   0.000000
    19  H    5.542088   1.094569   1.778397   0.000000
    20  H    6.161547   1.096722   1.756716   1.778449   0.000000
    21  O    6.220786   2.550785   2.441125   3.645338   2.437927
    22  H    6.551766   3.509316   3.368098   4.602136   3.364943
                   21         22
    21  O    0.000000
    22  H    0.974436   0.000000
 Symmetry turned off by external request.
 Stoichiometry    C9H12O
 Framework group  C1[X(C9H12O)]
 Deg. of freedom    60
 Full point group                 C1      NOp   1
 Rotational constants (GHZ):           1.9518036           1.2632636           0.7780455
 Standard basis: 6-31++G(d,p) (6D, 7F)
   262 basis functions,   416 primitive gaussians,   262 cartesian basis functions
    37 alpha electrons       37 beta electrons
       nuclear repulsion energy       529.3644333212 Hartrees.
 NAtoms=   22 NActive=   22 NUniq=   22 SFac= 1.00D+00 NAtFMM=   60 NAOKFM=F Big=F
 Integral buffers will be    131072 words long.
 Raffenetti 2 integral format.
 Two-electron integral symmetry is turned off.
 One-electron integrals computed using PRISM.
 NBasis=   262 RedAO= T EigKep=  1.08D-06  NBF=   262
 NBsUse=   260 1.00D-06 EigRej=  6.79D-07 NBFU=   260
 ExpMin= 3.60D-02 ExpMax= 5.48D+03 ExpMxC= 8.25D+02 IAcc=3 IRadAn=         5 AccDes= 0.00D+00
 Harris functional with IExCor=  402 and IRadAn=       5 diagonalized for initial guess.
 HarFok:  IExCor=  402 AccDes= 0.00D+00 IRadAn=         5 IDoV= 1 UseB2=F ITyADJ=14
 ICtDFT=  3500011 ScaDFX=  1.000000  1.000000  1.000000  1.000000
 FoFCou: FMM=F IPFlag=           0 FMFlag=      100000 FMFlg1=           0
         NFxFlg=           0 DoJE=T BraDBF=F KetDBF=T FulRan=T
         wScrn=  0.000000 ICntrl=       500 IOpCl=  0 I1Cent=   200000004 NGrid=           0
         NMat0=    1 NMatS0=      1 NMatT0=    0 NMatD0=    1 NMtDS0=    0 NMtDT0=    0
 Symmetry not used in FoFCou.
 Requested convergence on RMS density matrix=1.00D-08 within 128 cycles.
 Requested convergence on MAX density matrix=1.00D-06.
 Requested convergence on             energy=1.00D-06.
 No special actions if energy rises.
 SCF Done:  E(RB3LYP) =  -425.062446656     A.U. after   15 cycles
            NFock= 15  Conv=0.45D-08     -V/T= 2.0038

 **********************************************************************

            Population analysis using the SCF density.

 **********************************************************************

 Alpha  occ. eigenvalues --  -19.19087 -10.23439 -10.19758 -10.19719 -10.18860
 Alpha  occ. eigenvalues --  -10.18067 -10.17823 -10.17319 -10.16978 -10.14952
 Alpha  occ. eigenvalues --   -1.05526  -0.92058  -0.82947  -0.77530  -0.71162
 Alpha  occ. eigenvalues --   -0.69277  -0.67305  -0.60743  -0.55674  -0.54143
 Alpha  occ. eigenvalues --   -0.51209  -0.50811  -0.47850  -0.44438  -0.43050
 Alpha  occ. eigenvalues --   -0.41426  -0.41087  -0.40560  -0.39852  -0.38795
 Alpha  occ. eigenvalues --   -0.37517  -0.35167  -0.33985  -0.31248  -0.30830
 Alpha  occ. eigenvalues --   -0.22606  -0.20028
 Alpha virt. eigenvalues --   -0.01671  -0.01145  -0.00104  -0.00060   0.00770
 Alpha virt. eigenvalues --    0.02080   0.02259   0.02681   0.03845   0.04473
 Alpha virt. eigenvalues --    0.04515   0.05564   0.05951   0.07182   0.07589
 Alpha virt. eigenvalues --    0.07881   0.08814   0.09503   0.10286   0.10511
 Alpha virt. eigenvalues --    0.11593   0.12334   0.12365   0.12605   0.12894
 Alpha virt. eigenvalues --    0.13221   0.13502   0.13560   0.14470   0.14960
 Alpha virt. eigenvalues --    0.15693   0.15703   0.16213   0.16632   0.17015
 Alpha virt. eigenvalues --    0.17550   0.18041   0.18082   0.18451   0.19107
 Alpha virt. eigenvalues --    0.20126   0.20680   0.21422   0.22189   0.22537
 Alpha virt. eigenvalues --    0.22955   0.24252   0.25132   0.25670   0.26544
 Alpha virt. eigenvalues --    0.26698   0.27009   0.27846   0.28003   0.29788
 Alpha virt. eigenvalues --    0.30109   0.30592   0.30999   0.32593   0.33233
 Alpha virt. eigenvalues --    0.33603   0.34255   0.34999   0.36622   0.37318
 Alpha virt. eigenvalues --    0.39337   0.40551   0.41333   0.42537   0.43405
 Alpha virt. eigenvalues --    0.45037   0.48940   0.53704   0.57537   0.60347
 Alpha virt. eigenvalues --    0.67290   0.68630   0.69226   0.69532   0.70624
 Alpha virt. eigenvalues --    0.71513   0.72532   0.73782   0.75875   0.76166
 Alpha virt. eigenvalues --    0.76776   0.77947   0.80102   0.81063   0.81906
 Alpha virt. eigenvalues --    0.83900   0.84576   0.84774   0.88272   0.90637
 Alpha virt. eigenvalues --    0.92042   0.95436   0.96814   0.98432   0.99679
 Alpha virt. eigenvalues --    1.00397   1.03675   1.05786   1.06893   1.08436
 Alpha virt. eigenvalues --    1.10929   1.12358   1.14597   1.15310   1.17264
 Alpha virt. eigenvalues --    1.18122   1.19269   1.23074   1.23211   1.24487
 Alpha virt. eigenvalues --    1.25233   1.27298   1.27790   1.28913   1.29908
 Alpha virt. eigenvalues --    1.32319   1.35115   1.38469   1.38535   1.41023
 Alpha virt. eigenvalues --    1.42191   1.43928   1.45876   1.55780   1.59737
 Alpha virt. eigenvalues --    1.60184   1.65209   1.70793   1.71781   1.73104
 Alpha virt. eigenvalues --    1.76257   1.78972   1.82292   1.84011   1.85937
 Alpha virt. eigenvalues --    1.87121   1.88735   1.91860   1.92839   1.98931
 Alpha virt. eigenvalues --    2.02856   2.03219   2.03487   2.03708   2.04396
 Alpha virt. eigenvalues --    2.05274   2.05364   2.08946   2.11314   2.14041
 Alpha virt. eigenvalues --    2.15793   2.15867   2.18967   2.19530   2.21131
 Alpha virt. eigenvalues --    2.26573   2.27143   2.29183   2.30988   2.34344
 Alpha virt. eigenvalues --    2.34583   2.35060   2.35726   2.42125   2.43956
 Alpha virt. eigenvalues --    2.47149   2.47330   2.51748   2.54749   2.57861
 Alpha virt. eigenvalues --    2.58319   2.61915   2.62389   2.64239   2.66546
 Alpha virt. eigenvalues --    2.67424   2.71357   2.72071   2.76317   2.77147
 Alpha virt. eigenvalues --    2.81268   2.83195   2.84494   2.85849   2.85976
 Alpha virt. eigenvalues --    2.86844   2.91218   2.93293   2.99650   3.07568
 Alpha virt. eigenvalues --    3.11046   3.12782   3.19643   3.20727   3.24539
 Alpha virt. eigenvalues --    3.25757   3.27633   3.42364   3.42798   3.44332
 Alpha virt. eigenvalues --    3.47558   3.48838   3.51993   3.55108   3.58488
 Alpha virt. eigenvalues --    3.64407   3.75555   4.12586   4.31636   4.35681
 Alpha virt. eigenvalues --    4.36201   4.42856   4.46033   4.52220   4.59342
 Alpha virt. eigenvalues --    4.67677   4.75568   5.14120
          Condensed to atoms (all electrons):
               1          2          3          4          5          6
     1  C   13.775902  -1.368399   0.218926  -0.079250  -2.062405  -2.804816
     2  C   -1.368399  12.988505 -11.314204   4.860325  -1.302553   0.750334
     3  C    0.218926 -11.314204  34.159228 -11.429393   2.527821  -0.855431
     4  C   -0.079250   4.860325 -11.429393  14.183005  -1.370894  -0.727333
     5  C   -2.062405  -1.302553   2.527821  -1.370894   7.695497   0.135188
     6  C   -2.804816   0.750334  -0.855431  -0.727333   0.135188  11.841731
     7  H    0.132730  -0.529030   1.705794  -0.694029   0.031984   0.040950
     8  H    0.141342   0.017646   0.155206   0.005660   0.054309  -0.051200
     9  C    0.195975  -1.292848   2.151083  -1.531536   0.341352  -2.116687
    10  H    0.011093   0.004043  -0.087352   0.046565   0.006410  -0.097271
    11  H    0.012575  -0.027482   0.047213  -0.046257  -0.008434  -0.167637
    12  H    0.012478  -0.027263   0.048847  -0.047431  -0.008625  -0.168704
    13  C    0.531797  -0.605962  -0.681855   0.207550  -0.219720  -0.408416
    14  H    0.028053  -0.118277  -0.030559   0.019421  -0.007778  -0.018394
    15  H    0.028063  -0.119205  -0.031105   0.019420  -0.007766  -0.017833
    16  H    0.018311  -0.154268   0.086323  -0.055905   0.000828  -0.023043
    17  C   -1.200105   3.382468  -9.184688   1.913389  -0.424971   0.100975
    18  H    0.016092  -0.045038   0.076436  -0.020616  -0.036245  -0.002326
    19  H   -0.083329   0.095978  -0.042339  -0.185776   0.019744   0.045253
    20  H    0.016920  -0.041417   0.066329  -0.016103  -0.039723  -0.003010
    21  O    0.065445  -0.153581   0.354828  -0.589461   0.353509  -0.016561
    22  H    0.006050   0.005894  -0.026718   0.189594   0.045796  -0.186492
               7          8          9         10         11         12
     1  C    0.132730   0.141342   0.195975   0.011093   0.012575   0.012478
     2  C   -0.529030   0.017646  -1.292848   0.004043  -0.027482  -0.027263
     3  C    1.705794   0.155206   2.151083  -0.087352   0.047213   0.048847
     4  C   -0.694029   0.005660  -1.531536   0.046565  -0.046257  -0.047431
     5  C    0.031984   0.054309   0.341352   0.006410  -0.008434  -0.008625
     6  C    0.040950  -0.051200  -2.116687  -0.097271  -0.167637  -0.168704
     7  H    0.806896  -0.002614   0.061139  -0.001393   0.000801   0.000823
     8  H   -0.002614   0.705698  -0.016410   0.001253   0.000974   0.000810
     9  C    0.061139  -0.016410   8.072657   0.445525   0.542336   0.543295
    10  H   -0.001393   0.001253   0.445525   0.488694  -0.013677  -0.013521
    11  H    0.000801   0.000974   0.542336  -0.013677   0.571098  -0.053511
    12  H    0.000823   0.000810   0.543295  -0.013521  -0.053511   0.571067
    13  C   -0.074034  -0.029768  -0.209451  -0.004053  -0.003087  -0.003104
    14  H   -0.008466   0.001076  -0.005248   0.000144   0.000037  -0.000240
    15  H   -0.008566   0.000971  -0.005224   0.000153  -0.000237   0.000032
    16  H    0.007428   0.002432   0.004462  -0.000713   0.000188   0.000215
    17  C   -0.503087  -0.006719  -0.539838   0.018751  -0.013613  -0.013914
    18  H    0.006683   0.000293   0.003595  -0.000111  -0.000623   0.000517
    19  H   -0.000848  -0.001281  -0.004327   0.000378  -0.000094  -0.000108
    20  H    0.006212   0.000362   0.003623  -0.000125   0.000517  -0.000612
    21  O    0.004548  -0.001374   0.144235   0.000086   0.005761   0.005756
    22  H    0.000173   0.000238  -0.024448   0.002680  -0.009048  -0.008989
              13         14         15         16         17         18
     1  C    0.531797   0.028053   0.028063   0.018311  -1.200105   0.016092
     2  C   -0.605962  -0.118277  -0.119205  -0.154268   3.382468  -0.045038
     3  C   -0.681855  -0.030559  -0.031105   0.086323  -9.184688   0.076436
     4  C    0.207550   0.019421   0.019420  -0.055905   1.913389  -0.020616
     5  C   -0.219720  -0.007778  -0.007766   0.000828  -0.424971  -0.036245
     6  C   -0.408416  -0.018394  -0.017833  -0.023043   0.100975  -0.002326
     7  H   -0.074034  -0.008466  -0.008566   0.007428  -0.503087   0.006683
     8  H   -0.029768   0.001076   0.000971   0.002432  -0.006719   0.000293
     9  C   -0.209451  -0.005248  -0.005224   0.004462  -0.539838   0.003595
    10  H   -0.004053   0.000144   0.000153  -0.000713   0.018751  -0.000111
    11  H   -0.003087   0.000037  -0.000237   0.000188  -0.013613  -0.000623
    12  H   -0.003104  -0.000240   0.000032   0.000215  -0.013914   0.000517
    13  C    6.503340   0.476070   0.476516   0.479972   0.037965   0.001791
    14  H    0.476070   0.548506  -0.038119  -0.020800   0.006646  -0.000118
    15  H    0.476516  -0.038119   0.549033  -0.021169   0.006677   0.000020
    16  H    0.479972  -0.020800  -0.021169   0.525755  -0.012160  -0.000051
    17  C    0.037965   0.006646   0.006677  -0.012160  11.674660   0.281648
    18  H    0.001791  -0.000118   0.000020  -0.000051   0.281648   0.665177
    19  H   -0.001221   0.000300   0.000310   0.000039   0.453864  -0.039578
    20  H    0.001651   0.000056  -0.000088  -0.000109   0.287591  -0.081286
    21  O   -0.001360  -0.000216  -0.000213   0.000177  -0.314096   0.005639
    22  H    0.003712   0.000027   0.000029  -0.000076   0.013652   0.001368
              19         20         21         22
     1  C   -0.083329   0.016920   0.065445   0.006050
     2  C    0.095978  -0.041417  -0.153581   0.005894
     3  C   -0.042339   0.066329   0.354828  -0.026718
     4  C   -0.185776  -0.016103  -0.589461   0.189594
     5  C    0.019744  -0.039723   0.353509   0.045796
     6  C    0.045253  -0.003010  -0.016561  -0.186492
     7  H   -0.000848   0.006212   0.004548   0.000173
     8  H   -0.001281   0.000362  -0.001374   0.000238
     9  C   -0.004327   0.003623   0.144235  -0.024448
    10  H    0.000378  -0.000125   0.000086   0.002680
    11  H   -0.000094   0.000517   0.005761  -0.009048
    12  H   -0.000108  -0.000612   0.005756  -0.008989
    13  C   -0.001221   0.001651  -0.001360   0.003712
    14  H    0.000300   0.000056  -0.000216   0.000027
    15  H    0.000310  -0.000088  -0.000213   0.000029
    16  H    0.000039  -0.000109   0.000177  -0.000076
    17  C    0.453864   0.287591  -0.314096   0.013652
    18  H   -0.039578  -0.081286   0.005639   0.001368
    19  H    0.626452  -0.038970   0.005711  -0.000862
    20  H   -0.038970   0.664530   0.005680   0.001294
    21  O    0.005711   0.005680   8.496800   0.184889
    22  H   -0.000862   0.001294   0.184889   0.417586
 Mulliken charges:
               1
     1  C   -1.613446
     2  C    0.994334
     3  C   -1.914389
     4  C    1.349056
     5  C    0.276675
     6  C    0.750725
     7  H    0.015906
     8  H    0.021097
     9  C   -0.763260
    10  H    0.192440
    11  H    0.162200
    12  H    0.162182
    13  C   -0.478333
    14  H    0.167879
    15  H    0.168301
    16  H    0.162165
    17  C    0.034905
    18  H    0.166733
    19  H    0.150705
    20  H    0.166675
    21  O   -0.556202
    22  H    0.383654
 Sum of Mulliken charges =   0.00000
 Mulliken charges with hydrogens summed into heavy atoms:
               1
     1  C   -1.592349
     2  C    0.994334
     3  C   -1.898483
     4  C    1.349056
     5  C    0.276675
     6  C    0.750725
     9  C   -0.246438
    13  C    0.020011
    17  C    0.519018
    21  O   -0.172548
 Electronic spatial extent (au):  <R**2>=           2123.4280
 Charge=              0.0000 electrons
 Dipole moment (field-independent basis, Debye):
    X=             -0.2572    Y=             -0.0015    Z=             -1.0881  Tot=              1.1181
 Quadrupole moment (field-independent basis, Debye-Ang):
   XX=            -63.0935   YY=            -63.6103   ZZ=            -54.0355
   XY=             -0.0011   XZ=             -3.0631   YZ=             -0.0020
 Traceless Quadrupole moment (field-independent basis, Debye-Ang):
   XX=             -2.8470   YY=             -3.3639   ZZ=              6.2109
   XY=             -0.0011   XZ=             -3.0631   YZ=             -0.0020
 Octapole moment (field-independent basis, Debye-Ang**2):
  XXX=           -274.3478  YYY=              0.0287  ZZZ=            -95.7794  XYY=            -84.1291
  XXY=              0.0204  XXZ=            -41.9940  XZZ=            -67.7045  YZZ=              0.0200
  YYZ=            -31.9196  XYZ=              0.0028
 Hexadecapole moment (field-independent basis, Debye-Ang**3):
 XXXX=          -1865.4731 YYYY=            -94.7224 ZZZZ=          -1038.4554 XXXY=              0.0745
 XXXZ=            -81.1995 YYYX=              0.0853 YYYZ=             -0.0289 ZZZX=            -70.0476
 ZZZY=              0.1014 XXYY=           -302.3434 XXZZ=           -415.2951 YYZZ=           -194.8352
 XXYZ=             -0.0142 YYXZ=            -15.5965 ZZXY=              0.0163
 N-N= 5.293644333212D+02 E-N=-2.046677231840D+03  KE= 4.234691398320D+02
 Variable Step   Value    
 -------- ---- -----------
    16       1    2.078699
 ---------------------------------------------------------------------------------------------------
                            Z-MATRIX (ANGSTROMS AND DEGREES)
   CD    Cent   Atom    N1       Length/X        N2       Alpha/Y        N3        Beta/Z          J
 ---------------------------------------------------------------------------------------------------
      1      1  C 
      2      2  C        1   1.401724(     1)
      3      3  C        2   1.406789(     2)      1  118.055(    22)
      4      4  C        3   1.400915(     3)      2  122.112(    23)      1   -0.009(    42)      0
      5      5  C        4   1.405746(     4)      3  117.824(    24)      2   -0.001(    43)      0
      6      6  C        5   1.404289(     5)      4  122.156(    25)      3    0.007(    44)      0
      7      7  H        3   1.087747(     6)      2  119.407(    26)      1  179.986(    45)      0
      8      8  H        1   1.087556(     7)      2  119.427(    27)      3 -179.989(    46)      0
      9      9  C        6   1.513682(     8)      5  120.963(    28)      4  179.989(    47)      0
     10     10  H        9   1.094102(     9)      6  110.528(    29)      5 -179.995(    48)      0
     11     11  H        9   1.100142(    10)      6  112.220(    30)      5   60.715(    49)      0
     12     12  H        9   1.100143(    11)      6  112.220(    31)      5  -60.706(    50)      0
     13     13  C        2   1.514771(    12)      1  121.203(    32)      6 -179.963(    51)      0
     14     14  H       13   1.097772(    13)      2  111.483(    33)      1 -120.596(    52)      0
     15     15  H       13   1.097837(    14)      2  111.482(    34)      1  119.653(    53)      0
     16     16  H       13   1.095261(    15)      2  111.193(    35)      1   -0.464(    54)      0
     17     17  C        4   1.100000(    16)      3  122.005(    36)      2 -179.998(    55)      0
     18     18  H       17   1.096757(    17)      4  111.242(    37)      3  120.656(    56)      0
     19     19  H       17   1.094569(    18)      4  110.769(    38)      3   -0.105(    57)      0
     20     20  H       17   1.096722(    19)      4  111.243(    39)      3 -120.877(    58)      0
     21     21  O        5   1.405465(    20)      4  115.754(    40)      3 -179.998(    59)      0
     22     22  H       21   0.974436(    21)      5  112.627(    41)      4 -179.993(    60)      0
 ---------------------------------------------------------------------------------------------------
                         Z-Matrix orientation:                         
 ---------------------------------------------------------------------
 Center     Atomic      Atomic             Coordinates (Angstroms)
 Number     Number       Type             X           Y           Z
 ---------------------------------------------------------------------
      1          6           0        0.000000    0.000000    0.000000
      2          6           0        0.000000    0.000000    1.401724
      3          6           0        1.241488    0.000000    2.063361
      4          6           0        2.456750   -0.000177    1.366439
      5          6           0        2.407463   -0.000387   -0.038442
      6          6           0        1.193111   -0.000277   -0.743693
      7          1           0        1.267147    0.000235    3.150805
      8          1           0       -0.947242    0.000179   -0.534331
      9          6           0        1.171532   -0.000268   -2.257221
     10          1           0        0.141536   -0.000091   -2.626230
     11          1           0        1.663642   -0.888595   -2.680325
     12          1           0        1.663947    0.887899   -2.680306
     13          6           0       -1.295637   -0.000528    2.186489
     14          1           0       -1.370506    0.878733    2.839481
     15          1           0       -1.377295   -0.888347    2.827079
     16          1           0       -2.163344    0.007384    1.518195
     17          6           0        3.426526   -0.000214    1.885607
     18          1           0        4.022762   -0.879675    1.613714
     19          1           0        3.285673    0.001784    2.971073
     20          1           0        4.024515    0.877038    1.610586
     21          8           0        3.651135   -0.000610   -0.693127
     22          1           0        3.563909   -0.000647   -1.663651
 ---------------------------------------------------------------------
                    Distance matrix (angstroms):
                    1          2          3          4          5
     1  C    0.000000
     2  C    1.401724   0.000000
     3  C    2.408059   1.406789   0.000000
     4  C    2.811188   2.457003   1.400915   0.000000
     5  C    2.407769   2.805344   2.403554   1.405746   0.000000
     6  C    1.405914   2.454858   2.807470   2.459561   1.404289
     7  H    3.396062   2.159849   1.087747   2.144555   3.386978
     8  H    1.087556   2.155359   3.396843   3.898729   3.391158
     9  C    2.543135   3.841922   4.321148   3.844828   2.539784
    10  H    2.630041   4.030439   4.816861   4.615368   3.439632
    11  H    3.277414   4.496713   4.844623   4.218366   2.884740
    12  H    3.277366   4.496671   4.844503   4.218218   2.884668
    13  C    2.541537   1.514771   2.540110   3.840949   4.320100
    14  H    3.273089   2.172005   2.863048   4.194070   4.829942
    15  H    3.267794   2.172036   2.868876   4.197882   4.829501
    16  H    2.642920   2.166490   3.448208   4.622592   4.828608
    17  C    3.911086   3.460523   2.192256   1.100000   2.177258
    18  H    4.422727   4.123273   2.951525   1.813024   2.472238
    19  H    4.429777   3.641223   2.236658   1.806091   3.135034
    20  H    4.422658   4.124262   2.952870   1.813009   2.470633
    21  O    3.716344   4.209416   3.661233   2.380834   1.405465
    22  H    3.933088   4.700848   4.391385   3.226027   1.994661
                    6          7          8          9         10
     6  C    0.000000
     7  H    3.895202   0.000000
     8  H    2.150569   4.299273   0.000000
     9  C    1.513682   5.408872   2.730853   0.000000
    10  H    2.156329   5.885672   2.358279   1.094102   0.000000
    11  H    2.181984   5.911794   3.494557   1.100142   1.763284
    12  H    2.181975   5.911621   3.494506   1.100143   1.763289
    13  C    3.844455   2.738205   2.743035   5.082665   5.022721
    14  H    4.492652   2.797480   3.511924   5.762896   5.738692
    15  H    4.488437   2.808461   3.503355   5.756328   5.730133
    16  H    4.047467   3.799175   2.385753   5.037383   4.742234
    17  C    3.449834   2.502727   4.998594   4.716780   5.581023
    18  H    3.786506   3.275715   5.485361   4.887434   5.815041
    19  H    4.263602   2.026513   5.495946   5.639561   6.419922
    20  H    3.785387   3.277825   5.485245   4.885602   5.813560
    21  O    2.458543   4.523187   4.601118   2.931692   4.006765
    22  H    2.543031   5.334239   4.650360   2.464912   3.555164
                   11         12         13         14         15
    11  H    0.000000
    12  H    1.776494   0.000000
    13  C    5.764709   5.764906   0.000000
    14  H    6.541999   6.298892   1.097772   0.000000
    15  H    6.291168   6.537239   1.097837   1.767137   0.000000
    16  H    5.751188   5.748989   1.095261   1.770208   1.770137
    17  C    4.974406   4.974232   4.731738   4.969300   4.975123
    18  H    4.899418   5.208352   5.420917   5.803606   5.534704
    19  H    5.946600   5.945862   4.648007   4.739869   4.749351
    20  H    5.206063   4.897362   5.422711   5.533212   5.811712
    21  O    2.947473   2.947413   5.723875   6.202374   6.202019
    22  H    2.330899   2.330870   6.199900   6.737949   6.735738
                   16         17         18         19         20
    16  H    0.000000
    17  C    5.601936   0.000000
    18  H    6.250113   1.096757   0.000000
    19  H    5.639386   1.094569   1.778397   0.000000
    20  H    6.249355   1.096722   1.756716   1.778449   0.000000
    21  O    6.220786   2.588497   2.496473   3.682381   2.493346
    22  H    6.551766   3.551916   3.424085   4.643069   3.420982
                   21         22
    21  O    0.000000
    22  H    0.974436   0.000000
 Symmetry turned off by external request.
 Stoichiometry    C9H12O
 Framework group  C1[X(C9H12O)]
 Deg. of freedom    60
 Full point group                 C1      NOp   1
 Rotational constants (GHZ):           1.9051652           1.2602728           0.7694127
 Standard basis: 6-31++G(d,p) (6D, 7F)
   262 basis functions,   416 primitive gaussians,   262 cartesian basis functions
    37 alpha electrons       37 beta electrons
       nuclear repulsion energy       525.2528213043 Hartrees.
 NAtoms=   22 NActive=   22 NUniq=   22 SFac= 1.00D+00 NAtFMM=   60 NAOKFM=F Big=F
 Integral buffers will be    131072 words long.
 Raffenetti 2 integral format.
 Two-electron integral symmetry is turned off.
 One-electron integrals computed using PRISM.
 NBasis=   262 RedAO= T EigKep=  1.20D-06  NBF=   262
 NBsUse=   260 1.00D-06 EigRej=  9.64D-07 NBFU=   260
 Initial guess from the checkpoint file:  "C:\Users\Administrator\Desktop\dataset_dft\C8H6O3\C8H6O3.chk"
 B after Tr=     0.019641    0.000001    0.012697
         Rot=    1.000000    0.000000   -0.000342    0.000000 Ang=  -0.04 deg.
 ExpMin= 3.60D-02 ExpMax= 5.48D+03 ExpMxC= 8.25D+02 IAcc=3 IRadAn=         5 AccDes= 0.00D+00
 Harris functional with IExCor=  402 and IRadAn=       5 diagonalized for initial guess.
 HarFok:  IExCor=  402 AccDes= 0.00D+00 IRadAn=         5 IDoV= 1 UseB2=F ITyADJ=14
 ICtDFT=  3500011 ScaDFX=  1.000000  1.000000  1.000000  1.000000
 FoFCou: FMM=F IPFlag=           0 FMFlag=      100000 FMFlg1=           0
         NFxFlg=           0 DoJE=T BraDBF=F KetDBF=T FulRan=T
         wScrn=  0.000000 ICntrl=       500 IOpCl=  0 I1Cent=   200000004 NGrid=           0
         NMat0=    1 NMatS0=      1 NMatT0=    0 NMatD0=    1 NMtDS0=    0 NMtDT0=    0
 Symmetry not used in FoFCou.
 Requested convergence on RMS density matrix=1.00D-08 within 128 cycles.
 Requested convergence on MAX density matrix=1.00D-06.
 Requested convergence on             energy=1.00D-06.
 No special actions if energy rises.
 SCF Done:  E(RB3LYP) =  -425.254123914     A.U. after   13 cycles
            NFock= 13  Conv=0.87D-08     -V/T= 2.0061
 Variable Step   Value    
 -------- ---- -----------
    16       2    2.267671
 ---------------------------------------------------------------------------------------------------
                            Z-MATRIX (ANGSTROMS AND DEGREES)
   CD    Cent   Atom    N1       Length/X        N2       Alpha/Y        N3        Beta/Z          J
 ---------------------------------------------------------------------------------------------------
      1      1  C 
      2      2  C        1   1.401724(     1)
      3      3  C        2   1.406789(     2)      1  118.055(    22)
      4      4  C        3   1.400915(     3)      2  122.112(    23)      1   -0.009(    42)      0
      5      5  C        4   1.405746(     4)      3  117.824(    24)      2   -0.001(    43)      0
      6      6  C        5   1.404289(     5)      4  122.156(    25)      3    0.007(    44)      0
      7      7  H        3   1.087747(     6)      2  119.407(    26)      1  179.986(    45)      0
      8      8  H        1   1.087556(     7)      2  119.427(    27)      3 -179.989(    46)      0
      9      9  C        6   1.513682(     8)      5  120.963(    28)      4  179.989(    47)      0
     10     10  H        9   1.094102(     9)      6  110.528(    29)      5 -179.995(    48)      0
     11     11  H        9   1.100142(    10)      6  112.220(    30)      5   60.715(    49)      0
     12     12  H        9   1.100143(    11)      6  112.220(    31)      5  -60.706(    50)      0
     13     13  C        2   1.514771(    12)      1  121.203(    32)      6 -179.963(    51)      0
     14     14  H       13   1.097772(    13)      2  111.483(    33)      1 -120.596(    52)      0
     15     15  H       13   1.097837(    14)      2  111.482(    34)      1  119.653(    53)      0
     16     16  H       13   1.095261(    15)      2  111.193(    35)      1   -0.464(    54)      0
     17     17  C        4   1.200000(    16)      3  122.005(    36)      2 -179.998(    55)      0
     18     18  H       17   1.096757(    17)      4  111.242(    37)      3  120.656(    56)      0
     19     19  H       17   1.094569(    18)      4  110.769(    38)      3   -0.105(    57)      0
     20     20  H       17   1.096722(    19)      4  111.243(    39)      3 -120.877(    58)      0
     21     21  O        5   1.405465(    20)      4  115.754(    40)      3 -179.998(    59)      0
     22     22  H       21   0.974436(    21)      5  112.627(    41)      4 -179.993(    60)      0
 ---------------------------------------------------------------------------------------------------
                         Z-Matrix orientation:                         
 ---------------------------------------------------------------------
 Center     Atomic      Atomic             Coordinates (Angstroms)
 Number     Number       Type             X           Y           Z
 ---------------------------------------------------------------------
      1          6           0        0.000000    0.000000    0.000000
      2          6           0        0.000000    0.000000    1.401724
      3          6           0        1.241488    0.000000    2.063361
      4          6           0        2.456750   -0.000177    1.366439
      5          6           0        2.407463   -0.000387   -0.038442
      6          6           0        1.193111   -0.000277   -0.743693
      7          1           0        1.267147    0.000235    3.150805
      8          1           0       -0.947242    0.000179   -0.534331
      9          6           0        1.171532   -0.000268   -2.257221
     10          1           0        0.141536   -0.000091   -2.626230
     11          1           0        1.663642   -0.888595   -2.680325
     12          1           0        1.663947    0.887899   -2.680306
     13          6           0       -1.295637   -0.000528    2.186489
     14          1           0       -1.370506    0.878733    2.839481
     15          1           0       -1.377295   -0.888347    2.827079
     16          1           0       -2.163344    0.007384    1.518195
     17          6           0        3.514687   -0.000217    1.932804
     18          1           0        4.110924   -0.879678    1.660911
     19          1           0        3.373834    0.001781    3.018270
     20          1           0        4.112676    0.877034    1.657783
     21          8           0        3.651135   -0.000610   -0.693127
     22          1           0        3.563909   -0.000647   -1.663651
 ---------------------------------------------------------------------
                    Distance matrix (angstroms):
                    1          2          3          4          5
     1  C    0.000000
     2  C    1.401724   0.000000
     3  C    2.408059   1.406789   0.000000
     4  C    2.811188   2.457003   1.400915   0.000000
     5  C    2.407769   2.805344   2.403554   1.405746   0.000000
     6  C    1.405914   2.454858   2.807470   2.459561   1.404289
     7  H    3.396062   2.159849   1.087747   2.144555   3.386978
     8  H    1.087556   2.155359   3.396843   3.898729   3.391158
     9  C    2.543135   3.841922   4.321148   3.844828   2.539784
    10  H    2.630041   4.030439   4.816861   4.615368   3.439632
    11  H    3.277414   4.496713   4.844623   4.218366   2.884740
    12  H    3.277366   4.496671   4.844503   4.218218   2.884668
    13  C    2.541537   1.514771   2.540110   3.840949   4.320100
    14  H    3.273089   2.172005   2.863048   4.194070   4.829942
    15  H    3.267794   2.172036   2.868876   4.197882   4.829501
    16  H    2.642920   2.166490   3.448208   4.622592   4.828608
    17  C    4.011079   3.554585   2.276946   1.200000   2.260920
    18  H    4.520194   4.211972   3.028112   1.896451   2.561784
    19  H    4.526888   3.741121   2.336398   1.889336   3.205834
    20  H    4.520126   4.212940   3.029424   1.896437   2.560235
    21  O    3.716344   4.209416   3.661233   2.380834   1.405465
    22  H    3.933088   4.700848   4.391385   3.226027   1.994661
                    6          7          8          9         10
     6  C    0.000000
     7  H    3.895202   0.000000
     8  H    2.150569   4.299273   0.000000
     9  C    1.513682   5.408872   2.730853   0.000000
    10  H    2.156329   5.885672   2.358279   1.094102   0.000000
    11  H    2.181984   5.911794   3.494557   1.100142   1.763284
    12  H    2.181975   5.911621   3.494506   1.100143   1.763289
    13  C    3.844455   2.738205   2.743035   5.082665   5.022721
    14  H    4.492652   2.797480   3.511924   5.762896   5.738692
    15  H    4.488437   2.808461   3.503355   5.756328   5.730133
    16  H    4.047467   3.799175   2.385753   5.037383   4.742234
    17  C    3.543070   2.556358   5.098585   4.800696   5.671237
    18  H    3.881893   3.328829   5.583751   4.976459   5.908408
    19  H    4.348324   2.110853   5.593986   5.716725   6.504470
    20  H    3.880801   3.330906   5.583638   4.974660   5.906951
    21  O    2.458543   4.523187   4.601118   2.931692   4.006765
    22  H    2.543031   5.334239   4.650360   2.464912   3.555164
                   11         12         13         14         15
    11  H    0.000000
    12  H    1.776494   0.000000
    13  C    5.764709   5.764906   0.000000
    14  H    6.541999   6.298892   1.097772   0.000000
    15  H    6.291168   6.537239   1.097837   1.767137   0.000000
    16  H    5.751188   5.748989   1.095261   1.770208   1.770137
    17  C    5.049410   5.049235   4.817008   5.045764   5.051732
    18  H    4.983532   5.287550   5.502730   5.875977   5.610755
    19  H    6.015938   6.015205   4.742976   4.828020   4.837573
    20  H    5.285300   4.981507   5.504498   5.609074   5.884183
    21  O    2.947473   2.947413   5.723875   6.202374   6.202019
    22  H    2.330899   2.330870   6.199900   6.737949   6.735738
                   16         17         18         19         20
    16  H    0.000000
    17  C    5.693153   0.000000
    18  H    6.338271   1.096757   0.000000
    19  H    5.736776   1.094569   1.778397   0.000000
    20  H    6.337524   1.096722   1.756716   1.778449   0.000000
    21  O    6.220786   2.629474   2.554537   3.721743   2.551482
    22  H    6.551766   3.596792   3.482044   4.685779   3.478993
                   21         22
    21  O    0.000000
    22  H    0.974436   0.000000
 Symmetry turned off by external request.
 Stoichiometry    C9H12O
 Framework group  C1[X(C9H12O)]
 Deg. of freedom    60
 Full point group                 C1      NOp   1
 Rotational constants (GHZ):           1.8598978           1.2568284           0.7606632
 Standard basis: 6-31++G(d,p) (6D, 7F)
   262 basis functions,   416 primitive gaussians,   262 cartesian basis functions
    37 alpha electrons       37 beta electrons
       nuclear repulsion energy       521.5284808895 Hartrees.
 NAtoms=   22 NActive=   22 NUniq=   22 SFac= 1.00D+00 NAtFMM=   60 NAOKFM=F Big=F
 Integral buffers will be    131072 words long.
 Raffenetti 2 integral format.
 Two-electron integral symmetry is turned off.
 One-electron integrals computed using PRISM.
 NBasis=   262 RedAO= T EigKep=  1.12D-06  NBF=   262
 NBsUse=   261 1.00D-06 EigRej=  6.93D-07 NBFU=   261
 Initial guess from the checkpoint file:  "C:\Users\Administrator\Desktop\dataset_dft\C8H6O3\C8H6O3.chk"
 B after Tr=     0.019641    0.000001    0.012689
         Rot=    1.000000    0.000000   -0.000338    0.000000 Ang=  -0.04 deg.
 ExpMin= 3.60D-02 ExpMax= 5.48D+03 ExpMxC= 8.25D+02 IAcc=3 IRadAn=         5 AccDes= 0.00D+00
 Harris functional with IExCor=  402 and IRadAn=       5 diagonalized for initial guess.
 HarFok:  IExCor=  402 AccDes= 0.00D+00 IRadAn=         5 IDoV= 1 UseB2=F ITyADJ=14
 ICtDFT=  3500011 ScaDFX=  1.000000  1.000000  1.000000  1.000000
 FoFCou: FMM=F IPFlag=           0 FMFlag=      100000 FMFlg1=           0
         NFxFlg=           0 DoJE=T BraDBF=F KetDBF=T FulRan=T
         wScrn=  0.000000 ICntrl=       500 IOpCl=  0 I1Cent=   200000004 NGrid=           0
         NMat0=    1 NMatS0=      1 NMatT0=    0 NMatD0=    1 NMtDS0=    0 NMtDT0=    0
 Symmetry not used in FoFCou.
 Requested convergence on RMS density matrix=1.00D-08 within 128 cycles.
 Requested convergence on MAX density matrix=1.00D-06.
 Requested convergence on             energy=1.00D-06.
 No special actions if energy rises.
 SCF Done:  E(RB3LYP) =  -425.362996819     A.U. after   15 cycles
            NFock= 15  Conv=0.28D-08     -V/T= 2.0077
 Variable Step   Value    
 -------- ---- -----------
    16       3    2.456644
 ---------------------------------------------------------------------------------------------------
                            Z-MATRIX (ANGSTROMS AND DEGREES)
   CD    Cent   Atom    N1       Length/X        N2       Alpha/Y        N3        Beta/Z          J
 ---------------------------------------------------------------------------------------------------
      1      1  C 
      2      2  C        1   1.401724(     1)
      3      3  C        2   1.406789(     2)      1  118.055(    22)
      4      4  C        3   1.400915(     3)      2  122.112(    23)      1   -0.009(    42)      0
      5      5  C        4   1.405746(     4)      3  117.824(    24)      2   -0.001(    43)      0
      6      6  C        5   1.404289(     5)      4  122.156(    25)      3    0.007(    44)      0
      7      7  H        3   1.087747(     6)      2  119.407(    26)      1  179.986(    45)      0
      8      8  H        1   1.087556(     7)      2  119.427(    27)      3 -179.989(    46)      0
      9      9  C        6   1.513682(     8)      5  120.963(    28)      4  179.989(    47)      0
     10     10  H        9   1.094102(     9)      6  110.528(    29)      5 -179.995(    48)      0
     11     11  H        9   1.100142(    10)      6  112.220(    30)      5   60.715(    49)      0
     12     12  H        9   1.100143(    11)      6  112.220(    31)      5  -60.706(    50)      0
     13     13  C        2   1.514771(    12)      1  121.203(    32)      6 -179.963(    51)      0
     14     14  H       13   1.097772(    13)      2  111.483(    33)      1 -120.596(    52)      0
     15     15  H       13   1.097837(    14)      2  111.482(    34)      1  119.653(    53)      0
     16     16  H       13   1.095261(    15)      2  111.193(    35)      1   -0.464(    54)      0
     17     17  C        4   1.300000(    16)      3  122.005(    36)      2 -179.998(    55)      0
     18     18  H       17   1.096757(    17)      4  111.242(    37)      3  120.656(    56)      0
     19     19  H       17   1.094569(    18)      4  110.769(    38)      3   -0.105(    57)      0
     20     20  H       17   1.096722(    19)      4  111.243(    39)      3 -120.877(    58)      0
     21     21  O        5   1.405465(    20)      4  115.754(    40)      3 -179.998(    59)      0
     22     22  H       21   0.974436(    21)      5  112.627(    41)      4 -179.993(    60)      0
 ---------------------------------------------------------------------------------------------------
                         Z-Matrix orientation:                         
 ---------------------------------------------------------------------
 Center     Atomic      Atomic             Coordinates (Angstroms)
 Number     Number       Type             X           Y           Z
 ---------------------------------------------------------------------
      1          6           0        0.000000    0.000000    0.000000
      2          6           0        0.000000    0.000000    1.401724
      3          6           0        1.241488    0.000000    2.063361
      4          6           0        2.456750   -0.000177    1.366439
      5          6           0        2.407463   -0.000387   -0.038442
      6          6           0        1.193111   -0.000277   -0.743693
      7          1           0        1.267147    0.000235    3.150805
      8          1           0       -0.947242    0.000179   -0.534331
      9          6           0        1.171532   -0.000268   -2.257221
     10          1           0        0.141536   -0.000091   -2.626230
     11          1           0        1.663642   -0.888595   -2.680325
     12          1           0        1.663947    0.887899   -2.680306
     13          6           0       -1.295637   -0.000528    2.186489
     14          1           0       -1.370506    0.878733    2.839481
     15          1           0       -1.377295   -0.888347    2.827079
     16          1           0       -2.163344    0.007384    1.518195
     17          6           0        3.602849   -0.000221    1.980001
     18          1           0        4.199085   -0.879681    1.708108
     19          1           0        3.461996    0.001777    3.065467
     20          1           0        4.200838    0.877031    1.704980
     21          8           0        3.651135   -0.000610   -0.693127
     22          1           0        3.563909   -0.000647   -1.663651
 ---------------------------------------------------------------------
                    Distance matrix (angstroms):
                    1          2          3          4          5
     1  C    0.000000
     2  C    1.401724   0.000000
     3  C    2.408059   1.406789   0.000000
     4  C    2.811188   2.457003   1.400915   0.000000
     5  C    2.407769   2.805344   2.403554   1.405746   0.000000
     6  C    1.405914   2.454858   2.807470   2.459561   1.404289
     7  H    3.396062   2.159849   1.087747   2.144555   3.386978
     8  H    1.087556   2.155359   3.396843   3.898729   3.391158
     9  C    2.543135   3.841922   4.321148   3.844828   2.539784
    10  H    2.630041   4.030439   4.816861   4.615368   3.439632
    11  H    3.277414   4.496713   4.844623   4.218366   2.884740
    12  H    3.277366   4.496671   4.844503   4.218218   2.884668
    13  C    2.541537   1.514771   2.540110   3.840949   4.320100
    14  H    3.273089   2.172005   2.863048   4.194070   4.829942
    15  H    3.267794   2.172036   2.868876   4.197882   4.829501
    16  H    2.642920   2.166490   3.448208   4.622592   4.828608
    17  C    4.111073   3.648962   2.362832   1.300000   2.345860
    18  H    4.617769   4.301166   3.106031   1.981413   2.652076
    19  H    4.624122   3.841023   2.436160   1.974137   3.278155
    20  H    4.617703   4.302114   3.107310   1.981400   2.650581
    21  O    3.716344   4.209416   3.661233   2.380834   1.405465
    22  H    3.933088   4.700848   4.391385   3.226027   1.994661
                    6          7          8          9         10
     6  C    0.000000
     7  H    3.895202   0.000000
     8  H    2.150569   4.299273   0.000000
     9  C    1.513682   5.408872   2.730853   0.000000
    10  H    2.156329   5.885672   2.358279   1.094102   0.000000
    11  H    2.181984   5.911794   3.494557   1.100142   1.763284
    12  H    2.181975   5.911621   3.494506   1.100143   1.763289
    13  C    3.844455   2.738205   2.743035   5.082665   5.022721
    14  H    4.492652   2.797480   3.511924   5.762896   5.738692
    15  H    4.488437   2.808461   3.503355   5.756328   5.730133
    16  H    4.047467   3.799175   2.385753   5.037383   4.742234
    17  C    3.636666   2.612716   5.198576   4.885217   5.761774
    18  H    3.977506   3.384064   5.682198   5.065894   6.001989
    19  H    4.433682   2.196508   5.692093   5.794587   6.589451
    20  H    3.976441   3.386108   5.682087   5.064127   6.000554
    21  O    2.458543   4.523187   4.601118   2.931692   4.006765
    22  H    2.543031   5.334239   4.650360   2.464912   3.555164
                   11         12         13         14         15
    11  H    0.000000
    12  H    1.776494   0.000000
    13  C    5.764709   5.764906   0.000000
    14  H    6.541999   6.298892   1.097772   0.000000
    15  H    6.291168   6.537239   1.097837   1.767137   0.000000
    16  H    5.751188   5.748989   1.095261   1.770208   1.770137
    17  C    5.125267   5.125091   4.902835   5.123038   5.129146
    18  H    5.068224   5.367443   5.585134   5.949149   5.687547
    19  H    6.086129   6.085401   4.838148   4.916624   4.926245
    20  H    5.365230   5.066228   5.586877   5.685681   5.957452
    21  O    2.947473   2.947413   5.723875   6.202374   6.202019
    22  H    2.330899   2.330870   6.199900   6.737949   6.735738
                   16         17         18         19         20
    16  H    0.000000
    17  C    5.784661   0.000000
    18  H    6.426777   1.096757   0.000000
    19  H    5.834255   1.094569   1.778397   0.000000
    20  H    6.426040   1.096722   1.756716   1.778449   0.000000
    21  O    6.220786   2.673564   2.615138   3.763351   2.612153
    22  H    6.551766   3.643860   3.541879   4.730217   3.538880
                   21         22
    21  O    0.000000
    22  H    0.974436   0.000000
 Symmetry turned off by external request.
 Stoichiometry    C9H12O
 Framework group  C1[X(C9H12O)]
 Deg. of freedom    60
 Full point group                 C1      NOp   1
 Rotational constants (GHZ):           1.8161347           1.2528563           0.7518114
 Standard basis: 6-31++G(d,p) (6D, 7F)
   262 basis functions,   416 primitive gaussians,   262 cartesian basis functions
    37 alpha electrons       37 beta electrons
       nuclear repulsion energy       518.1208004007 Hartrees.
 NAtoms=   22 NActive=   22 NUniq=   22 SFac= 1.00D+00 NAtFMM=   60 NAOKFM=F Big=F
 Integral buffers will be    131072 words long.
 Raffenetti 2 integral format.
 Two-electron integral symmetry is turned off.
 One-electron integrals computed using PRISM.
 NBasis=   262 RedAO= T EigKep=  1.20D-06  NBF=   262
 NBsUse=   261 1.00D-06 EigRej=  7.15D-07 NBFU=   261
 Initial guess from the checkpoint file:  "C:\Users\Administrator\Desktop\dataset_dft\C8H6O3\C8H6O3.chk"
 B after Tr=     0.019641    0.000001    0.012681
         Rot=    1.000000    0.000000   -0.000334    0.000000 Ang=  -0.04 deg.
 ExpMin= 3.60D-02 ExpMax= 5.48D+03 ExpMxC= 8.25D+02 IAcc=3 IRadAn=         5 AccDes= 0.00D+00
 Harris functional with IExCor=  402 and IRadAn=       5 diagonalized for initial guess.
 HarFok:  IExCor=  402 AccDes= 0.00D+00 IRadAn=         5 IDoV= 1 UseB2=F ITyADJ=14
 ICtDFT=  3500011 ScaDFX=  1.000000  1.000000  1.000000  1.000000
 FoFCou: FMM=F IPFlag=           0 FMFlag=      100000 FMFlg1=           0
         NFxFlg=           0 DoJE=T BraDBF=F KetDBF=T FulRan=T
         wScrn=  0.000000 ICntrl=       500 IOpCl=  0 I1Cent=   200000004 NGrid=           0
         NMat0=    1 NMatS0=      1 NMatT0=    0 NMatD0=    1 NMtDS0=    0 NMtDT0=    0
 Symmetry not used in FoFCou.
 Requested convergence on RMS density matrix=1.00D-08 within 128 cycles.
 Requested convergence on MAX density matrix=1.00D-06.
 Requested convergence on             energy=1.00D-06.
 No special actions if energy rises.
 SCF Done:  E(RB3LYP) =  -425.420932807     A.U. after   14 cycles
            NFock= 14  Conv=0.81D-08     -V/T= 2.0088
 Variable Step   Value    
 -------- ---- -----------
    16       4    2.645617
 ---------------------------------------------------------------------------------------------------
                            Z-MATRIX (ANGSTROMS AND DEGREES)
   CD    Cent   Atom    N1       Length/X        N2       Alpha/Y        N3        Beta/Z          J
 ---------------------------------------------------------------------------------------------------
      1      1  C 
      2      2  C        1   1.401724(     1)
      3      3  C        2   1.406789(     2)      1  118.055(    22)
      4      4  C        3   1.400915(     3)      2  122.112(    23)      1   -0.009(    42)      0
      5      5  C        4   1.405746(     4)      3  117.824(    24)      2   -0.001(    43)      0
      6      6  C        5   1.404289(     5)      4  122.156(    25)      3    0.007(    44)      0
      7      7  H        3   1.087747(     6)      2  119.407(    26)      1  179.986(    45)      0
      8      8  H        1   1.087556(     7)      2  119.427(    27)      3 -179.989(    46)      0
      9      9  C        6   1.513682(     8)      5  120.963(    28)      4  179.989(    47)      0
     10     10  H        9   1.094102(     9)      6  110.528(    29)      5 -179.995(    48)      0
     11     11  H        9   1.100142(    10)      6  112.220(    30)      5   60.715(    49)      0
     12     12  H        9   1.100143(    11)      6  112.220(    31)      5  -60.706(    50)      0
     13     13  C        2   1.514771(    12)      1  121.203(    32)      6 -179.963(    51)      0
     14     14  H       13   1.097772(    13)      2  111.483(    33)      1 -120.596(    52)      0
     15     15  H       13   1.097837(    14)      2  111.482(    34)      1  119.653(    53)      0
     16     16  H       13   1.095261(    15)      2  111.193(    35)      1   -0.464(    54)      0
     17     17  C        4   1.400000(    16)      3  122.005(    36)      2 -179.998(    55)      0
     18     18  H       17   1.096757(    17)      4  111.242(    37)      3  120.656(    56)      0
     19     19  H       17   1.094569(    18)      4  110.769(    38)      3   -0.105(    57)      0
     20     20  H       17   1.096722(    19)      4  111.243(    39)      3 -120.877(    58)      0
     21     21  O        5   1.405465(    20)      4  115.754(    40)      3 -179.998(    59)      0
     22     22  H       21   0.974436(    21)      5  112.627(    41)      4 -179.993(    60)      0
 ---------------------------------------------------------------------------------------------------
                         Z-Matrix orientation:                         
 ---------------------------------------------------------------------
 Center     Atomic      Atomic             Coordinates (Angstroms)
 Number     Number       Type             X           Y           Z
 ---------------------------------------------------------------------
      1          6           0        0.000000    0.000000    0.000000
      2          6           0        0.000000    0.000000    1.401724
      3          6           0        1.241488    0.000000    2.063361
      4          6           0        2.456750   -0.000177    1.366439
      5          6           0        2.407463   -0.000387   -0.038442
      6          6           0        1.193111   -0.000277   -0.743693
      7          1           0        1.267147    0.000235    3.150805
      8          1           0       -0.947242    0.000179   -0.534331
      9          6           0        1.171532   -0.000268   -2.257221
     10          1           0        0.141536   -0.000091   -2.626230
     11          1           0        1.663642   -0.888595   -2.680325
     12          1           0        1.663947    0.887899   -2.680306
     13          6           0       -1.295637   -0.000528    2.186489
     14          1           0       -1.370506    0.878733    2.839481
     15          1           0       -1.377295   -0.888347    2.827079
     16          1           0       -2.163344    0.007384    1.518195
     17          6           0        3.691010   -0.000224    2.027198
     18          1           0        4.287247   -0.879685    1.755305
     19          1           0        3.550157    0.001774    3.112664
     20          1           0        4.288999    0.877028    1.752177
     21          8           0        3.651135   -0.000610   -0.693127
     22          1           0        3.563909   -0.000647   -1.663651
 ---------------------------------------------------------------------
                    Distance matrix (angstroms):
                    1          2          3          4          5
     1  C    0.000000
     2  C    1.401724   0.000000
     3  C    2.408059   1.406789   0.000000
     4  C    2.811188   2.457003   1.400915   0.000000
     5  C    2.407769   2.805344   2.403554   1.405746   0.000000
     6  C    1.405914   2.454858   2.807470   2.459561   1.404289
     7  H    3.396062   2.159849   1.087747   2.144555   3.386978
     8  H    1.087556   2.155359   3.396843   3.898729   3.391158
     9  C    2.543135   3.841922   4.321148   3.844828   2.539784
    10  H    2.630041   4.030439   4.816861   4.615368   3.439632
    11  H    3.277414   4.496713   4.844623   4.218366   2.884740
    12  H    3.277366   4.496671   4.844503   4.218218   2.884668
    13  C    2.541537   1.514771   2.540110   3.840949   4.320100
    14  H    3.273089   2.172005   2.863048   4.194070   4.829942
    15  H    3.267794   2.172036   2.868876   4.197882   4.829501
    16  H    2.642920   2.166490   3.448208   4.622592   4.828608
    17  C    4.211067   3.743631   2.449789   1.400000   2.431946
    18  H    4.715445   4.390826   3.185183   2.067721   2.743043
    19  H    4.721472   3.940931   2.535941   2.060302   3.351899
    20  H    4.715381   4.391755   3.186431   2.067709   2.741597
    21  O    3.716344   4.209416   3.661233   2.380834   1.405465
    22  H    3.933088   4.700848   4.391385   3.226027   1.994661
                    6          7          8          9         10
     6  C    0.000000
     7  H    3.895202   0.000000
     8  H    2.150569   4.299273   0.000000
     9  C    1.513682   5.408872   2.730853   0.000000
    10  H    2.156329   5.885672   2.358279   1.094102   0.000000
    11  H    2.181984   5.911794   3.494557   1.100142   1.763284
    12  H    2.181975   5.911621   3.494506   1.100143   1.763289
    13  C    3.844455   2.738205   2.743035   5.082665   5.022721
    14  H    4.492652   2.797480   3.511924   5.762896   5.738692
    15  H    4.488437   2.808461   3.503355   5.756328   5.730133
    16  H    4.047467   3.799175   2.385753   5.037383   4.742234
    17  C    3.730594   2.671630   5.298567   4.970313   5.852619
    18  H    4.073330   3.441320   5.780698   5.155717   6.095773
    19  H    4.519641   2.283329   5.790265   5.873119   6.674848
    20  H    4.072290   3.443330   5.780589   5.153981   6.094361
    21  O    2.458543   4.523187   4.601118   2.931692   4.006765
    22  H    2.543031   5.334239   4.650360   2.464912   3.555164
                   11         12         13         14         15
    11  H    0.000000
    12  H    1.776494   0.000000
    13  C    5.764709   5.764906   0.000000
    14  H    6.541999   6.298892   1.097772   0.000000
    15  H    6.291168   6.537239   1.097837   1.767137   0.000000
    16  H    5.751188   5.748989   1.095261   1.770208   1.770137
    17  C    5.201941   5.201763   4.989190   5.201088   5.207330
    18  H    5.153464   5.447999   5.668106   6.023092   5.765051
    19  H    6.157144   6.156420   4.933510   5.005658   5.015342
    20  H    5.445824   5.151497   5.669823   5.763006   6.031489
    21  O    2.947473   2.947413   5.723875   6.202374   6.202019
    22  H    2.330899   2.330870   6.199900   6.737949   6.735738
                   16         17         18         19         20
    16  H    0.000000
    17  C    5.876445   0.000000
    18  H    6.515614   1.096757   0.000000
    19  H    5.931817   1.094569   1.778397   0.000000
    20  H    6.514888   1.096722   1.756716   1.778449   0.000000
    21  O    6.220786   2.720617   2.678102   3.807131   2.675188
    22  H    6.551766   3.693037   3.603496   4.776336   3.600549
                   21         22
    21  O    0.000000
    22  H    0.974436   0.000000
 Symmetry turned off by external request.
 Stoichiometry    C9H12O
 Framework group  C1[X(C9H12O)]
 Deg. of freedom    60
 Full point group                 C1      NOp   1
 Rotational constants (GHZ):           1.7740119           1.2482688           0.7428712
 Standard basis: 6-31++G(d,p) (6D, 7F)
   262 basis functions,   416 primitive gaussians,   262 cartesian basis functions
    37 alpha electrons       37 beta electrons
       nuclear repulsion energy       514.9780904738 Hartrees.
 NAtoms=   22 NActive=   22 NUniq=   22 SFac= 1.00D+00 NAtFMM=   60 NAOKFM=F Big=F
 Integral buffers will be    131072 words long.
 Raffenetti 2 integral format.
 Two-electron integral symmetry is turned off.
 One-electron integrals computed using PRISM.
 NBasis=   262 RedAO= T EigKep=  1.27D-06  NBF=   262
 NBsUse=   261 1.00D-06 EigRej=  7.31D-07 NBFU=   261
 Initial guess from the checkpoint file:  "C:\Users\Administrator\Desktop\dataset_dft\C8H6O3\C8H6O3.chk"
 B after Tr=     0.019642    0.000001    0.012672
         Rot=    1.000000    0.000000   -0.000330    0.000000 Ang=  -0.04 deg.
 ExpMin= 3.60D-02 ExpMax= 5.48D+03 ExpMxC= 8.25D+02 IAcc=3 IRadAn=         5 AccDes= 0.00D+00
 Harris functional with IExCor=  402 and IRadAn=       5 diagonalized for initial guess.
 HarFok:  IExCor=  402 AccDes= 0.00D+00 IRadAn=         5 IDoV= 1 UseB2=F ITyADJ=14
 ICtDFT=  3500011 ScaDFX=  1.000000  1.000000  1.000000  1.000000
 FoFCou: FMM=F IPFlag=           0 FMFlag=      100000 FMFlg1=           0
         NFxFlg=           0 DoJE=T BraDBF=F KetDBF=T FulRan=T
         wScrn=  0.000000 ICntrl=       500 IOpCl=  0 I1Cent=   200000004 NGrid=           0
         NMat0=    1 NMatS0=      1 NMatT0=    0 NMatD0=    1 NMtDS0=    0 NMtDT0=    0
 Symmetry not used in FoFCou.
 Requested convergence on RMS density matrix=1.00D-08 within 128 cycles.
 Requested convergence on MAX density matrix=1.00D-06.
 Requested convergence on             energy=1.00D-06.
 No special actions if energy rises.
 SCF Done:  E(RB3LYP) =  -425.447601756     A.U. after   12 cycles
            NFock= 12  Conv=0.97D-08     -V/T= 2.0096
 Variable Step   Value    
 -------- ---- -----------
    16       5    2.834589
 ---------------------------------------------------------------------------------------------------
                            Z-MATRIX (ANGSTROMS AND DEGREES)
   CD    Cent   Atom    N1       Length/X        N2       Alpha/Y        N3        Beta/Z          J
 ---------------------------------------------------------------------------------------------------
      1      1  C 
      2      2  C        1   1.401724(     1)
      3      3  C        2   1.406789(     2)      1  118.055(    22)
      4      4  C        3   1.400915(     3)      2  122.112(    23)      1   -0.009(    42)      0
      5      5  C        4   1.405746(     4)      3  117.824(    24)      2   -0.001(    43)      0
      6      6  C        5   1.404289(     5)      4  122.156(    25)      3    0.007(    44)      0
      7      7  H        3   1.087747(     6)      2  119.407(    26)      1  179.986(    45)      0
      8      8  H        1   1.087556(     7)      2  119.427(    27)      3 -179.989(    46)      0
      9      9  C        6   1.513682(     8)      5  120.963(    28)      4  179.989(    47)      0
     10     10  H        9   1.094102(     9)      6  110.528(    29)      5 -179.995(    48)      0
     11     11  H        9   1.100142(    10)      6  112.220(    30)      5   60.715(    49)      0
     12     12  H        9   1.100143(    11)      6  112.220(    31)      5  -60.706(    50)      0
     13     13  C        2   1.514771(    12)      1  121.203(    32)      6 -179.963(    51)      0
     14     14  H       13   1.097772(    13)      2  111.483(    33)      1 -120.596(    52)      0
     15     15  H       13   1.097837(    14)      2  111.482(    34)      1  119.653(    53)      0
     16     16  H       13   1.095261(    15)      2  111.193(    35)      1   -0.464(    54)      0
     17     17  C        4   1.500000(    16)      3  122.005(    36)      2 -179.998(    55)      0
     18     18  H       17   1.096757(    17)      4  111.242(    37)      3  120.656(    56)      0
     19     19  H       17   1.094569(    18)      4  110.769(    38)      3   -0.105(    57)      0
     20     20  H       17   1.096722(    19)      4  111.243(    39)      3 -120.877(    58)      0
     21     21  O        5   1.405465(    20)      4  115.754(    40)      3 -179.998(    59)      0
     22     22  H       21   0.974436(    21)      5  112.627(    41)      4 -179.993(    60)      0
 ---------------------------------------------------------------------------------------------------
                         Z-Matrix orientation:                         
 ---------------------------------------------------------------------
 Center     Atomic      Atomic             Coordinates (Angstroms)
 Number     Number       Type             X           Y           Z
 ---------------------------------------------------------------------
      1          6           0        0.000000    0.000000    0.000000
      2          6           0        0.000000    0.000000    1.401724
      3          6           0        1.241488    0.000000    2.063361
      4          6           0        2.456750   -0.000177    1.366439
      5          6           0        2.407463   -0.000387   -0.038442
      6          6           0        1.193111   -0.000277   -0.743693
      7          1           0        1.267147    0.000235    3.150805
      8          1           0       -0.947242    0.000179   -0.534331
      9          6           0        1.171532   -0.000268   -2.257221
     10          1           0        0.141536   -0.000091   -2.626230
     11          1           0        1.663642   -0.888595   -2.680325
     12          1           0        1.663947    0.887899   -2.680306
     13          6           0       -1.295637   -0.000528    2.186489
     14          1           0       -1.370506    0.878733    2.839481
     15          1           0       -1.377295   -0.888347    2.827079
     16          1           0       -2.163344    0.007384    1.518195
     17          6           0        3.779171   -0.000227    2.074395
     18          1           0        4.375408   -0.879688    1.802502
     19          1           0        3.638319    0.001771    3.159861
     20          1           0        4.377161    0.877024    1.799374
     21          8           0        3.651135   -0.000610   -0.693127
     22          1           0        3.563909   -0.000647   -1.663651
 ---------------------------------------------------------------------
                    Distance matrix (angstroms):
                    1          2          3          4          5
     1  C    0.000000
     2  C    1.401724   0.000000
     3  C    2.408059   1.406789   0.000000
     4  C    2.811188   2.457003   1.400915   0.000000
     5  C    2.407769   2.805344   2.403554   1.405746   0.000000
     6  C    1.405914   2.454858   2.807470   2.459561   1.404289
     7  H    3.396062   2.159849   1.087747   2.144555   3.386978
     8  H    1.087556   2.155359   3.396843   3.898729   3.391158
     9  C    2.543135   3.841922   4.321148   3.844828   2.539784
    10  H    2.630041   4.030439   4.816861   4.615368   3.439632
[...]
     20          1           0        5.611421    0.876977    2.460132
     21          8           0        3.651135   -0.000610   -0.693127
     22          1           0        3.563909   -0.000647   -1.663651
 ---------------------------------------------------------------------
                    Distance matrix (angstroms):
                    1          2          3          4          5
     1  C    0.000000
     2  C    1.401724   0.000000
     3  C    2.408059   1.406789   0.000000
     4  C    2.811188   2.457003   1.400915   0.000000
     5  C    2.407769   2.805344   2.403554   1.405746   0.000000
     6  C    1.405914   2.454858   2.807470   2.459561   1.404289
     7  H    3.396062   2.159849   1.087747   2.144555   3.386978
     8  H    1.087556   2.155359   3.396843   3.898729   3.391158
     9  C    2.543135   3.841922   4.321148   3.844828   2.539784
    10  H    2.630041   4.030439   4.816861   4.615368   3.439632
    11  H    3.277414   4.496713   4.844623   4.218366   2.884740
    12  H    3.277366   4.496671   4.844503   4.218218   2.884668
    13  C    2.541537   1.514771   2.540110   3.840949   4.320100
    14  H    3.273089   2.172005   2.863048   4.194070   4.829942
    15  H    3.267794   2.172036   2.868876   4.197882   4.829501
    16  H    2.642920   2.166490   3.448208   4.622592   4.828608
    17  C    5.711003   5.187729   3.831301   2.900000   3.805773
    18  H    6.189504   5.776606   4.473797   3.452178   4.157631
    19  H    6.191862   5.439953   4.033954   3.443724   4.579210
    20  H    6.189458   5.777314   4.474688   3.452175   4.156680
    21  O    3.716344   4.209416   3.661233   2.380834   1.405465
    22  H    3.933088   4.700848   4.391385   3.226027   1.994661
                    6          7          8          9         10
     6  C    0.000000
     7  H    3.895202   0.000000
     8  H    2.150569   4.299273   0.000000
     9  C    1.513682   5.408872   2.730853   0.000000
    10  H    2.156329   5.885672   2.358279   1.094102   0.000000
    11  H    2.181984   5.911794   3.494557   1.100142   1.763284
    12  H    2.181975   5.911621   3.494506   1.100143   1.763289
    13  C    3.844455   2.738205   2.743035   5.082665   5.022721
    14  H    4.492652   2.797480   3.511924   5.762896   5.738692
    15  H    4.488437   2.808461   3.503355   5.756328   5.730133
    16  H    4.047467   3.799175   2.385753   5.037383   4.742234
    17  C    5.166935   3.769273   6.798467   6.299523   7.244294
    18  H    5.528469   4.483811   7.263118   6.538613   7.521779
    19  H    5.862715   3.667123   7.268831   7.116031   7.996539
    20  H    5.527705   4.485357   7.263033   6.537247   7.520636
    21  O    2.458543   4.523187   4.601118   2.931692   4.006765
    22  H    2.543031   5.334239   4.650360   2.464912   3.555164
                   11         12         13         14         15
    11  H    0.000000
    12  H    1.776494   0.000000
    13  C    5.764709   5.764906   0.000000
    14  H    6.541999   6.298892   1.097772   0.000000
    15  H    6.291168   6.537239   1.097837   1.767137   0.000000
    16  H    5.751188   5.748989   1.095261   1.770208   1.770137
    17  C    6.429433   6.429238   6.332880   6.445014   6.452791
    18  H    6.482875   6.719340   6.966552   7.208092   6.996435
    19  H    7.304260   7.303606   6.381008   6.380274   6.390639
    20  H    6.717626   6.481263   6.967951   6.992225   7.217560
    21  O    2.947473   2.947413   5.723875   6.202374   6.202019
    22  H    2.330899   2.330870   6.199900   6.737949   6.735738
                   16         17         18         19         20
    16  H    0.000000
    17  C    7.279228   0.000000
    18  H    7.880346   1.096757   0.000000
    19  H    7.403067   1.094569   1.778397   0.000000
    20  H    7.879747   1.096722   1.756716   1.778449   0.000000
    21  O    6.220786   3.689032   3.817263   4.676092   3.815223
    22  H    6.551766   4.631479   4.689278   5.638249   4.687016
                   21         22
    21  O    0.000000
    22  H    0.974436   0.000000
 Symmetry turned off by external request.
 Stoichiometry    C9H12O
 Framework group  C1[X(C9H12O)]
 Deg. of freedom    60
 Full point group                 C1      NOp   1
 Rotational constants (GHZ):           1.4128743           1.0410075           0.6061672
 Standard basis: 6-31++G(d,p) (6D, 7F)
   262 basis functions,   416 primitive gaussians,   262 cartesian basis functions
    37 alpha electrons       37 beta electrons
       nuclear repulsion energy       484.8670076636 Hartrees.
 NAtoms=   22 NActive=   22 NUniq=   22 SFac= 1.00D+00 NAtFMM=   60 NAOKFM=F Big=F
 Integral buffers will be    131072 words long.
 Raffenetti 2 integral format.
 Two-electron integral symmetry is turned off.
 One-electron integrals computed using PRISM.
 NBasis=   262 RedAO= T EigKep=  2.60D-06  NBF=   262
 NBsUse=   261 1.00D-06 EigRej=  8.10D-07 NBFU=   261
 Initial guess from the checkpoint file:  "C:\Users\Administrator\Desktop\dataset_dft\C8H6O3\C8H6O3.chk"
 B after Tr=     0.019671    0.000000    0.012493
         Rot=    1.000000    0.000000   -0.000268    0.000000 Ang=  -0.03 deg.
 ExpMin= 3.60D-02 ExpMax= 5.48D+03 ExpMxC= 8.25D+02 IAcc=3 IRadAn=         5 AccDes= 0.00D+00
 Harris functional with IExCor=  402 and IRadAn=       5 diagonalized for initial guess.
 HarFok:  IExCor=  402 AccDes= 0.00D+00 IRadAn=         5 IDoV= 1 UseB2=F ITyADJ=14
 ICtDFT=  3500011 ScaDFX=  1.000000  1.000000  1.000000  1.000000
 FoFCou: FMM=F IPFlag=           0 FMFlag=      100000 FMFlg1=           0
         NFxFlg=           0 DoJE=T BraDBF=F KetDBF=T FulRan=T
         wScrn=  0.000000 ICntrl=       500 IOpCl=  0 I1Cent=   200000004 NGrid=           0
         NMat0=    1 NMatS0=      1 NMatT0=    0 NMatD0=    1 NMtDS0=    0 NMtDT0=    0
 Symmetry not used in FoFCou.
 Requested convergence on RMS density matrix=1.00D-08 within 128 cycles.
 Requested convergence on MAX density matrix=1.00D-06.
 Requested convergence on             energy=1.00D-06.
 No special actions if energy rises.
 SCF Done:  E(RB3LYP) =  -425.275650196     A.U. after   12 cycles
            NFock= 12  Conv=0.32D-08     -V/T= 2.0109
 Variable Step   Value    
 -------- ---- -----------
    16      20    5.669178
 ---------------------------------------------------------------------------------------------------
                            Z-MATRIX (ANGSTROMS AND DEGREES)
   CD    Cent   Atom    N1       Length/X        N2       Alpha/Y        N3        Beta/Z          J
 ---------------------------------------------------------------------------------------------------
      1      1  C 
      2      2  C        1   1.401724(     1)
      3      3  C        2   1.406789(     2)      1  118.055(    22)
      4      4  C        3   1.400915(     3)      2  122.112(    23)      1   -0.009(    42)      0
      5      5  C        4   1.405746(     4)      3  117.824(    24)      2   -0.001(    43)      0
      6      6  C        5   1.404289(     5)      4  122.156(    25)      3    0.007(    44)      0
      7      7  H        3   1.087747(     6)      2  119.407(    26)      1  179.986(    45)      0
      8      8  H        1   1.087556(     7)      2  119.427(    27)      3 -179.989(    46)      0
      9      9  C        6   1.513682(     8)      5  120.963(    28)      4  179.989(    47)      0
     10     10  H        9   1.094102(     9)      6  110.528(    29)      5 -179.995(    48)      0
     11     11  H        9   1.100142(    10)      6  112.220(    30)      5   60.715(    49)      0
     12     12  H        9   1.100143(    11)      6  112.220(    31)      5  -60.706(    50)      0
     13     13  C        2   1.514771(    12)      1  121.203(    32)      6 -179.963(    51)      0
     14     14  H       13   1.097772(    13)      2  111.483(    33)      1 -120.596(    52)      0
     15     15  H       13   1.097837(    14)      2  111.482(    34)      1  119.653(    53)      0
     16     16  H       13   1.095261(    15)      2  111.193(    35)      1   -0.464(    54)      0
     17     17  C        4   3.000000(    16)      3  122.005(    36)      2 -179.998(    55)      0
     18     18  H       17   1.096757(    17)      4  111.242(    37)      3  120.656(    56)      0
     19     19  H       17   1.094569(    18)      4  110.769(    38)      3   -0.105(    57)      0
     20     20  H       17   1.096722(    19)      4  111.243(    39)      3 -120.877(    58)      0
     21     21  O        5   1.405465(    20)      4  115.754(    40)      3 -179.998(    59)      0
     22     22  H       21   0.974436(    21)      5  112.627(    41)      4 -179.993(    60)      0
 ---------------------------------------------------------------------------------------------------
                         Z-Matrix orientation:                         
 ---------------------------------------------------------------------
 Center     Atomic      Atomic             Coordinates (Angstroms)
 Number     Number       Type             X           Y           Z
 ---------------------------------------------------------------------
      1          6           0        0.000000    0.000000    0.000000
      2          6           0        0.000000    0.000000    1.401724
      3          6           0        1.241488    0.000000    2.063361
      4          6           0        2.456750   -0.000177    1.366439
      5          6           0        2.407463   -0.000387   -0.038442
      6          6           0        1.193111   -0.000277   -0.743693
      7          1           0        1.267147    0.000235    3.150805
      8          1           0       -0.947242    0.000179   -0.534331
      9          6           0        1.171532   -0.000268   -2.257221
     10          1           0        0.141536   -0.000091   -2.626230
     11          1           0        1.663642   -0.888595   -2.680325
     12          1           0        1.663947    0.887899   -2.680306
     13          6           0       -1.295637   -0.000528    2.186489
     14          1           0       -1.370506    0.878733    2.839481
     15          1           0       -1.377295   -0.888347    2.827079
     16          1           0       -2.163344    0.007384    1.518195
     17          6           0        5.101593   -0.000278    2.782350
     18          1           0        5.697830   -0.879739    2.510457
     19          1           0        4.960740    0.001720    3.867817
     20          1           0        5.699582    0.876973    2.507329
     21          8           0        3.651135   -0.000610   -0.693127
     22          1           0        3.563909   -0.000647   -1.663651
 ---------------------------------------------------------------------
                    Distance matrix (angstroms):
                    1          2          3          4          5
     1  C    0.000000
     2  C    1.401724   0.000000
     3  C    2.408059   1.406789   0.000000
     4  C    2.811188   2.457003   1.400915   0.000000
     5  C    2.407769   2.805344   2.403554   1.405746   0.000000
     6  C    1.405914   2.454858   2.807470   2.459561   1.404289
     7  H    3.396062   2.159849   1.087747   2.144555   3.386978
     8  H    1.087556   2.155359   3.396843   3.898729   3.391158
     9  C    2.543135   3.841922   4.321148   3.844828   2.539784
    10  H    2.630041   4.030439   4.816861   4.615368   3.439632
    11  H    3.277414   4.496713   4.844623   4.218366   2.884740
    12  H    3.277366   4.496671   4.844503   4.218218   2.884668
    13  C    2.541537   1.514771   2.540110   3.840949   4.320100
    14  H    3.273089   2.172005   2.863048   4.194070   4.829942
    15  H    3.267794   2.172036   2.868876   4.197882   4.829501
    16  H    2.642920   2.166490   3.448208   4.622592   4.828608
    17  C    5.811000   5.285109   3.926495   3.000000   3.900668
    18  H    6.288211   5.870988   4.564299   3.547817   4.254018
    19  H    6.290386   5.539906   4.133873   3.539330   4.666700
    20  H    6.288165   5.871685   4.565173   3.547814   4.253089
    21  O    3.716344   4.209416   3.661233   2.380834   1.405465
    22  H    3.933088   4.700848   4.391385   3.226027   1.994661
                    6          7          8          9         10
     6  C    0.000000
     7  H    3.895202   0.000000
     8  H    2.150569   4.299273   0.000000
     9  C    1.513682   5.408872   2.730853   0.000000
    10  H    2.156329   5.885672   2.358279   1.094102   0.000000
    11  H    2.181984   5.911794   3.494557   1.100142   1.763284
    12  H    2.181975   5.911621   3.494506   1.100143   1.763289
    13  C    3.844455   2.738205   2.743035   5.082665   5.022721
    14  H    4.492652   2.797480   3.511924   5.762896   5.738692
    15  H    4.488437   2.808461   3.503355   5.756328   5.730133
    16  H    4.047467   3.799175   2.385753   5.037383   4.742234
    17  C    5.263954   3.852108   6.898462   6.390826   7.338590
    18  H    5.626316   4.562384   7.362199   6.632616   7.617856
    19  H    5.954918   3.762544   7.367711   7.202374   8.086864
    20  H    5.625566   4.563904   7.362115   6.631269   7.616728
    21  O    2.458543   4.523187   4.601118   2.931692   4.006765
    22  H    2.543031   5.334239   4.650360   2.464912   3.555164
                   11         12         13         14         15
    11  H    0.000000
    12  H    1.776494   0.000000
    13  C    5.764709   5.764906   0.000000
    14  H    6.541999   6.298892   1.097772   0.000000
    15  H    6.291168   6.537239   1.097837   1.767137   0.000000
    16  H    5.751188   5.748989   1.095261   1.770208   1.770137
    17  C    6.515323   6.515127   6.424920   6.531768   6.539622
    18  H    6.574114   6.807406   7.055958   7.291218   7.082211
    19  H    7.385233   7.384583   6.478358   6.473894   6.484292
    20  H    6.805718   6.572521   7.057339   7.077887   7.300739
    21  O    2.947473   2.947413   5.723875   6.202374   6.202019
    22  H    2.330899   2.330870   6.199900   6.737949   6.735738
                   16         17         18         19         20
    16  H    0.000000
    17  C    7.374107   0.000000
    18  H    7.973056   1.096757   0.000000
    19  H    7.501555   1.094569   1.778397   0.000000
    20  H    7.972464   1.096722   1.756716   1.778449   0.000000
    21  O    6.220786   3.766002   3.901895   4.745238   3.899899
    22  H    6.551766   4.704402   4.769654   5.705110   4.767431
                   21         22
    21  O    0.000000
    22  H    0.974436   0.000000
 Symmetry turned off by external request.
 Stoichiometry    C9H12O
 Framework group  C1[X(C9H12O)]
 Deg. of freedom    60
 Full point group                 C1      NOp   1
 Rotational constants (GHZ):           1.4053697           1.0190580           0.5973074
 Standard basis: 6-31++G(d,p) (6D, 7F)
   262 basis functions,   416 primitive gaussians,   262 cartesian basis functions
    37 alpha electrons       37 beta electrons
       nuclear repulsion energy       483.5309973942 Hartrees.
 NAtoms=   22 NActive=   22 NUniq=   22 SFac= 1.00D+00 NAtFMM=   60 NAOKFM=F Big=F
 Integral buffers will be    131072 words long.
 Raffenetti 2 integral format.
 Two-electron integral symmetry is turned off.
 One-electron integrals computed using PRISM.
 NBasis=   262 RedAO= T EigKep=  2.65D-06  NBF=   262
 NBsUse=   261 1.00D-06 EigRej=  8.19D-07 NBFU=   261
 Initial guess from the checkpoint file:  "C:\Users\Administrator\Desktop\dataset_dft\C8H6O3\C8H6O3.chk"
 B after Tr=     0.019674    0.000000    0.012479
         Rot=    1.000000    0.000000   -0.000264    0.000000 Ang=  -0.03 deg.
 ExpMin= 3.60D-02 ExpMax= 5.48D+03 ExpMxC= 8.25D+02 IAcc=3 IRadAn=         5 AccDes= 0.00D+00
 Harris functional with IExCor=  402 and IRadAn=       5 diagonalized for initial guess.
 HarFok:  IExCor=  402 AccDes= 0.00D+00 IRadAn=         5 IDoV= 1 UseB2=F ITyADJ=14
 ICtDFT=  3500011 ScaDFX=  1.000000  1.000000  1.000000  1.000000
 FoFCou: FMM=F IPFlag=           0 FMFlag=      100000 FMFlg1=           0
         NFxFlg=           0 DoJE=T BraDBF=F KetDBF=T FulRan=T
         wScrn=  0.000000 ICntrl=       500 IOpCl=  0 I1Cent=   200000004 NGrid=           0
         NMat0=    1 NMatS0=      1 NMatT0=    0 NMatD0=    1 NMtDS0=    0 NMtDT0=    0
 Symmetry not used in FoFCou.
 Requested convergence on RMS density matrix=1.00D-08 within 128 cycles.
 Requested convergence on MAX density matrix=1.00D-06.
 Requested convergence on             energy=1.00D-06.
 No special actions if energy rises.
 SCF Done:  E(RB3LYP) =  -425.267409670     A.U. after   12 cycles
            NFock= 12  Conv=0.36D-08     -V/T= 2.0109
 Scan completed.
 
 Summary of the potential surface scan:
   N      B16         SCF    
 ----  ---------  -----------
    1     1.0000   -425.06245
    2     1.1000   -425.25412
    3     1.2000   -425.36300
    4     1.3000   -425.42093
    5     1.4000   -425.44760
    6     1.5000   -425.45518
    7     1.6000   -425.45127
    8     1.7000   -425.44061
    9     1.8000   -425.42622
   10     1.9000   -425.41000
   11     2.0000   -425.39316
   12     2.1000   -425.37648
   13     2.2000   -425.36041
   14     2.3000   -425.34521
   15     2.4000   -425.33101
   16     2.5000   -425.31788
   17     2.6000   -425.30582
   18     2.7000   -425.29479
   19     2.8000   -425.28475
   20     2.9000   -425.27565
   21     3.0000   -425.26741
 ----  ---------  -----------
  
 1|1|UNPC-BF-202112021916|Scan|RB3LYP|6-31++G(d,p)|C9H12O1|ADMINISTRATO
 R|21-Mar-2023|1||# scan b3lyp/6-31++g(d,p) nosymm||Title Card Required
 ||0,1|C|C,1,B1|C,2,B2,1,A1|C,3,B3,2,A2,1,D1,0|C,4,B4,3,A3,2,D2,0|C,5,B
 5,4,A4,3,D3,0|H,3,B6,2,A5,1,D4,0|H,1,B7,2,A6,3,D5,0|C,6,B8,5,A7,4,D6,0
 |H,9,B9,6,A8,5,D7,0|H,9,B10,6,A9,5,D8,0|H,9,B11,6,A10,5,D9,0|C,2,B12,1
 ,A11,6,D10,0|H,13,B13,2,A12,1,D11,0|H,13,B14,2,A13,1,D12,0|H,13,B15,2,
 A14,1,D13,0|C,4,B16,3,A15,2,D14,0|H,17,B17,4,A16,3,D15,0|H,17,B18,4,A1
 7,3,D16,0|H,17,B19,4,A18,3,D17,0|O,5,B20,4,A19,3,D18,0|H,21,B21,5,A20,
 4,D19,0||B1=1.40172372|B2=1.4067889|B3=1.40091456|B4=1.40574604|B5=1.4
 0428866|B6=1.0877472|B7=1.0875556|B8=1.51368221|B9=1.09410205|B10=1.10
 014242|B11=1.10014305|B12=1.5147712|B13=1.0977718|B14=1.09783685|B15=1
 .09526065|B16=1.,s,20,0.1|B17=1.09675659|B18=1.09456869|B19=1.0967215|
 B20=1.40546547|B21=0.97443585|A1=118.05489243|A2=122.11195318|A3=117.8
 2388104|A4=122.15571465|A5=119.40658646|A6=119.42693933|A7=120.9632841
 3|A8=110.52751361|A9=112.22032978|A10=112.2195867|A11=121.2032423|A12=
 111.48295131|A13=111.48150097|A14=111.19313304|A15=122.00457753|A16=11
 1.2415396|A17=110.7686959|A18=111.24276989|A19=115.75361474|A20=112.62
 722068|D1=-0.00852575|D2=-0.00133353|D3=0.00703282|D4=179.98577911|D5=
 -179.9891797|D6=179.98938788|D7=-179.99524881|D8=60.71536748|D9=-60.70
 593948|D10=-179.96336306|D11=-120.59576262|D12=119.65332994|D13=-0.463
 77751|D14=-179.99769154|D15=120.65588323|D16=-0.10528748|D17=-120.8765
 0648|D18=-179.99764726|D19=-179.99345926||Version=EM64W-G16RevA.03|HF=
 -425.0624467,-425.2541239,-425.3629968,-425.4209328,-425.4476018,-425.
 4551846,-425.4512694,-425.4406119,-425.426217,-425.4099956,-425.393163
 2,-425.3764809,-425.3604087,-425.3452084,-425.3310147,-425.3178828,-42
 5.305817,-425.2947902,-425.2847548,-425.2756502,-425.2674097|RMSD=4.45
 1e-009,8.659e-009,2.756e-009,8.073e-009,9.677e-009,6.098e-009,4.365e-0
 09,3.162e-009,9.361e-009,8.044e-009,7.954e-009,8.426e-009,8.577e-009,4
 .763e-009,6.806e-009,7.871e-009,7.510e-009,5.556e-009,3.194e-009,3.194
 e-009,3.623e-009|PG=C01 [X(C9H12O1)]||@


 IT IS BETTER TO THINK YOU ARE HALF DRY THAN TO KNOW YOU
 ARE ALL WET.  -- SNOOPY
 Job cpu time:       0 days  0 hours 19 minutes 38.0 seconds.
 Elapsed time:       0 days  0 hours 19 minutes 16.5 seconds.
 File lengths (MBytes):  RWF=     47 Int=      0 D2E=      0 Chk=      8 Scr=      1
 Normal termination of Gaussian 16 at Tue Mar 21 15:38:33 2023.
