 Entering Link 1 = I:\G16W\l1.exe PID=     20156.
  
 Copyright (c) 1988,1990,1992,1993,1995,1998,2003,2009,2016,
            Gaussian, Inc.  All Rights Reserved.
  
 This is part of the Gaussian(R) 16 program.  It is based on
 the Gaussian(R) 09 system (copyright 2009, Gaussian, Inc.),
 the Gaussian(R) 03 system (copyright 2003, Gaussian, Inc.),
 the Gaussian(R) 98 system (copyright 1998, Gaussian, Inc.),
 the Gaussian(R) 94 system (copyright 1995, Gaussian, Inc.),
 the Gaussian 92(TM) system (copyright 1992, Gaussian, Inc.),
 the Gaussian 90(TM) system (copyright 1990, Gaussian, Inc.),
 the Gaussian 88(TM) system (copyright 1988, Gaussian, Inc.),
 the Gaussian 86(TM) system (copyright 1986, Carnegie Mellon
 University), and the Gaussian 82(TM) system (copyright 1983,
 Carnegie Mellon University). Gaussian is a federally registered
 trademark of Gaussian, Inc.
  
 This software contains proprietary and confidential information,
 including trade secrets, belonging to Gaussian, Inc.
  
 This software is provided under written license and may be
 used, copied, transmitted, or stored only in accord with that
 written license.
  
 The following legend is applicable only to US Government
 contracts under FAR:
  
                    RESTRICTED RIGHTS LEGEND
  
 Use, reproduction and disclosure by the US Government is
 subject to restrictions as set forth in subparagraphs (a)
 and (c) of the Commercial Computer Software - Restricted
 Rights clause in FAR 52.227-19.
  
 Gaussian, Inc.
 340 Quinnipiac St., Bldg. 40, Wallingford CT 06492
  
  
 ---------------------------------------------------------------
 Warning -- This program may not be used in any manner that
 competes with the business of Gaussian, Inc. or will provide
 assistance to any competitor of Gaussian, Inc.  The licensee
 of this program is prohibited from giving any competitor of
 Gaussian, Inc. access to this program.  By using this program,
 the user acknowledges that Gaussian, Inc. is engaged in the
 business of creating and licensing software in the field of
 computational chemistry and represents and warrants to the
 licensee that it is not a competitor of Gaussian, Inc. and that
 it will not use this program in any manner prohibited above.
 ---------------------------------------------------------------
  

 Cite this work as:
 Gaussian 16, Revision A.03,
 M. J. Frisch, G. W. Trucks, H. B. Schlegel, G. E. Scuseria, 
 M. A. Robb, J. R. Cheeseman, G. Scalmani, V. Barone, 
 G. A. Petersson, H. Nakatsuji, X. Li, M. Caricato, A. V. Marenich, 
 J. Bloino, B. G. Janesko, R. Gomperts, B. Mennucci, H. P. Hratchian, 
 J. V. Ortiz, A. F. Izmaylov, J. L. Sonnenberg, D. Williams-Young, 
 F. Ding, F. Lipparini, F. Egidi, J. Goings, B. Peng, A. Petrone, 
 T. Henderson, D. Ranasinghe, V. G. Zakrzewski, J. Gao, N. Rega, 
 G. Zheng, W. Liang, M. Hada, M. Ehara, K. Toyota, R. Fukuda, 
 J. Hasegawa, M. Ishida, T. Nakajima, Y. Honda, O. Kitao, H. Nakai, 
 T. Vreven, K. Throssell, J. A. Montgomery, Jr., J. E. Peralta, 
 F. Ogliaro, M. J. Bearpark, J. J. Heyd, E. N. Brothers, K. N. Kudin, 
 V. N. Staroverov, T. A. Keith, R. Kobayashi, J. Normand, 
 K. Raghavachari, A. P. Rendell, J. C. Burant, S. S. Iyengar, 
 J. Tomasi, M. Cossi, J. M. Millam, M. Klene, C. Adamo, R. Cammi, 
 J. W. Ochterski, R. L. Martin, K. Morokuma, O. Farkas, 
 J. B. Foresman, and D. J. Fox, Gaussian, Inc., Wallingford CT, 2016.
 
 ******************************************
 Gaussian 16:  EM64W-G16RevA.03 17-Dec-2016
                21-Mar-2023 
 ******************************************
 %nprocshared=8
 Will use up to    8 processors via shared memory.
 %mem=150MW
 %chk=C:\Users\Administrator\Desktop\dataset_dft\C8H6O3\C8H6O3.chk
 --------------------------------
 # scan b3lyp/6-31++g(d,p) nosymm
 --------------------------------
 1/38=1,60=1,172=1/1,8;
 2/12=2,15=1,17=6,18=5,29=3,40=1/2;
 3/5=1,6=6,7=1111,11=2,25=1,30=1,74=-5/1,2,3;
 4//1;
 5/5=2,38=5/2;
 6/7=2,8=2,9=2,10=2,18=1,28=1/1;
 1/60=1/8(1);
 99/9=1/99;
 2/15=1,29=3/2;
 3/5=1,6=6,7=1111,11=2,25=1,30=1,74=-5/1,2,3;
 4/5=5,16=3,69=1/1;
 5/5=2,38=5/2;
 1/60=1/8(-4);
 99/9=1/99;
 -------------------
 Title Card Required
 -------------------
 Symbolic Z-matrix:
 Charge =  0 Multiplicity = 1
 C(PDBName=C,ResName=MOL,ResNum=1)
 C(PDBName=C,ResName=MOL,ResNum=1) 1    B1
 C(PDBName=C,ResName=MOL,ResNum=1) 2    B2       1    A1
 C(PDBName=C,ResName=MOL,ResNum=1) 3    B3       2    A2       1    D1       0
 C(PDBName=C,ResName=MOL,ResNum=1) 4    B4       3    A3       2    D2       0
 C(PDBName=C,ResName=MOL,ResNum=1) 5    B5       4    A4       3    D3       0
 H(PDBName=H,ResName=MOL,ResNum=1) 3    B6       2    A5       1    D4       0
 H(PDBName=H,ResName=MOL,ResNum=1) 1    B7       2    A6       3    D5       0
 C(PDBName=C,ResName=MOL,ResNum=1) 6    B8       5    A7       4    D6       0
 H(PDBName=H,ResName=MOL,ResNum=1) 9    B9       6    A8       5    D7       0
 H(PDBName=H,ResName=MOL,ResNum=1) 9    B10      6    A9       5    D8       0
 H(PDBName=H,ResName=MOL,ResNum=1) 9    B11      6    A10      5    D9       0
 C(PDBName=C,ResName=MOL,ResNum=1) 2    B12      1    A11      6    D10      0
 H(PDBName=H,ResName=MOL,ResNum=1) 13   B13      2    A12      1    D11      0
 H(PDBName=H,ResName=MOL,ResNum=1) 13   B14      2    A13      1    D12      0
 H(PDBName=H,ResName=MOL,ResNum=1) 13   B15      2    A14      1    D13      0
 C(PDBName=C,ResName=MOL,ResNum=1) 4    B16      3    A15      2    D14      0
 H(PDBName=H,ResName=MOL,ResNum=1) 17   B17      4    A16      3    D15      0
 H(PDBName=H,ResName=MOL,ResNum=1) 17   B18      4    A17      3    D16      0
 H(PDBName=H,ResName=MOL,ResNum=1) 17   B19      4    A18      3    D17      0
 O(PDBName=O,ResName=MOL,ResNum=1) 5    B20      4    A19      3    D18      0
 H(PDBName=H,ResName=MOL,ResNum=1) 21   B21      5    A20      4    D19      0
       Variables:
  B1                    1.40172                  
  B2                    1.40679                  
  B3                    1.40091                  
  B4                    1.40575                  
  B5                    1.40429                  
  B6                    1.08775                  
  B7                    1.08756                  
  B8                    1.51368                  
  B9                    1.0941                   
  B10                   1.10014                  
  B11                   1.10014                  
  B12                   1.51477                  
  B13                   0.5    Scan 20    0.1    
  B14                   1.09784                  
  B15                   1.09526                  
  B16                   1.50915                  
  B17                   1.09676                  
  B18                   1.09457                  
  B19                   1.09672                  
  B20                   1.40547                  
  B21                   0.97444                  
  A1                  118.05489                  
  A2                  122.11195                  
  A3                  117.82388                  
  A4                  122.15571                  
  A5                  119.40659                  
  A6                  119.42694                  
  A7                  120.96328                  
  A8                  110.52751                  
  A9                  112.22033                  
  A10                 112.21959                  
  A11                 121.20324                  
  A12                 111.48295                  
  A13                 111.4815                   
  A14                 111.19313                  
  A15                 122.00458                  
  A16                 111.24154                  
  A17                 110.7687                   
  A18                 111.24277                  
  A19                 115.75361                  
  A20                 112.62722                  
  D1                   -0.00853                  
  D2                   -0.00133                  
  D3                    0.00703                  
  D4                  179.98578                  
  D5                 -179.98918                  
  D6                  179.98939                  
  D7                 -179.99525                  
  D8                   60.71537                  
  D9                  -60.70594                  
  D10                -179.96336                  
  D11                -120.59576                  
  D12                 119.65333                  
  D13                  -0.46378                  
  D14                -179.99769                  
  D15                 120.65588                  
  D16                  -0.10529                  
  D17                -120.87651                  
  D18                -179.99765                  
  D19                -179.99346                  
 
 Center=      1.34139732     -0.02206383      0.54245846
 Residue   1 PDB Number     1_0 MOL charge    0.00000000 layers R        AvRTP=      0.00000000      0.00000000      0.00000000
 Scan the potential surface.
 Variable   Value     No. Steps Step-Size
 -------- ----------- --------- ---------
    13       0.500000      20      0.1000
 A total of     21 points will be computed.
 ---------------------------------------------------------------------------------------------------
                            Z-MATRIX (ANGSTROMS AND DEGREES)
   CD    Cent   Atom    N1       Length/X        N2       Alpha/Y        N3        Beta/Z          J
 ---------------------------------------------------------------------------------------------------
      1      1  C 
      2      2  C        1   1.401724(     1)
      3      3  C        2   1.406789(     2)      1  118.055(    22)
      4      4  C        3   1.400915(     3)      2  122.112(    23)      1   -0.009(    42)      0
      5      5  C        4   1.405746(     4)      3  117.824(    24)      2   -0.001(    43)      0
      6      6  C        5   1.404289(     5)      4  122.156(    25)      3    0.007(    44)      0
      7      7  H        3   1.087747(     6)      2  119.407(    26)      1  179.986(    45)      0
      8      8  H        1   1.087556(     7)      2  119.427(    27)      3 -179.989(    46)      0
      9      9  C        6   1.513682(     8)      5  120.963(    28)      4  179.989(    47)      0
     10     10  H        9   1.094102(     9)      6  110.528(    29)      5 -179.995(    48)      0
     11     11  H        9   1.100142(    10)      6  112.220(    30)      5   60.715(    49)      0
     12     12  H        9   1.100143(    11)      6  112.220(    31)      5  -60.706(    50)      0
     13     13  C        2   1.514771(    12)      1  121.203(    32)      6 -179.963(    51)      0
     14     14  H       13   0.500000(    13)      2  111.483(    33)      1 -120.596(    52)      0
     15     15  H       13   1.097837(    14)      2  111.482(    34)      1  119.653(    53)      0
     16     16  H       13   1.095261(    15)      2  111.193(    35)      1   -0.464(    54)      0
     17     17  C        4   1.509153(    16)      3  122.005(    36)      2 -179.998(    55)      0
     18     18  H       17   1.096757(    17)      4  111.242(    37)      3  120.656(    56)      0
     19     19  H       17   1.094569(    18)      4  110.769(    38)      3   -0.105(    57)      0
     20     20  H       17   1.096722(    19)      4  111.243(    39)      3 -120.877(    58)      0
     21     21  O        5   1.405465(    20)      4  115.754(    40)      3 -179.998(    59)      0
     22     22  H       21   0.974436(    21)      5  112.627(    41)      4 -179.993(    60)      0
 ---------------------------------------------------------------------------------------------------
                         Z-Matrix orientation:                         
 ---------------------------------------------------------------------
 Center     Atomic      Atomic             Coordinates (Angstroms)
 Number     Number       Type             X           Y           Z
 ---------------------------------------------------------------------
      1          6           0        0.000000    0.000000    0.000000
      2          6           0        0.000000    0.000000    1.401724
      3          6           0        1.241488    0.000000    2.063361
      4          6           0        2.456750   -0.000177    1.366439
      5          6           0        2.407463   -0.000387   -0.038442
      6          6           0        1.193111   -0.000277   -0.743693
      7          1           0        1.267147    0.000235    3.150805
      8          1           0       -0.947242    0.000179   -0.534331
      9          6           0        1.171532   -0.000268   -2.257221
     10          1           0        0.141536   -0.000091   -2.626230
     11          1           0        1.663642   -0.888595   -2.680325
     12          1           0        1.663947    0.887899   -2.680306
     13          6           0       -1.295637   -0.000528    2.186489
     14          1           0       -1.329737    0.399947    2.483906
     15          1           0       -1.377295   -0.888347    2.827079
     16          1           0       -2.163344    0.007384    1.518195
     17          6           0        3.787241   -0.000228    2.078715
     18          1           0        4.383478   -0.879688    1.806822
     19          1           0        3.646388    0.001770    3.164181
     20          1           0        4.385230    0.877024    1.803694
     21          8           0        3.651135   -0.000610   -0.693127
     22          1           0        3.563909   -0.000647   -1.663651
 ---------------------------------------------------------------------
                    Distance matrix (angstroms):
                    1          2          3          4          5
     1  C    0.000000
     2  C    1.401724   0.000000
     3  C    2.408059   1.406789   0.000000
     4  C    2.811188   2.457003   1.400915   0.000000
     5  C    2.407769   2.805344   2.403554   1.405746   0.000000
     6  C    1.405914   2.454858   2.807470   2.459561   1.404289
     7  H    3.396062   2.159849   1.087747   2.144555   3.386978
     8  H    1.087556   2.155359   3.396843   3.898729   3.391158
     9  C    2.543135   3.841922   4.321148   3.844828   2.539784
    10  H    2.630041   4.030439   4.816861   4.615368   3.439632
    11  H    3.277414   4.496713   4.844623   4.218366   2.884740
    12  H    3.277366   4.496671   4.844503   4.218218   2.884668
    13  C    2.541537   1.514771   2.540110   3.840949   4.320100
    14  H    2.845689   1.760477   2.635909   3.968163   4.526497
    15  H    3.267794   2.172036   2.868876   4.197882   4.829501
    16  H    2.642920   2.166490   3.448208   4.622592   4.828608
    17  C    4.320214   3.847273   2.545800   1.509153   2.527082
    18  H    4.822171   4.489191   3.272883   2.163275   2.843028
    19  H    4.827856   4.049988   2.644873   2.155718   3.433910
    20  H    4.822108   4.490100   3.274098   2.163264   2.841633
    21  O    3.716344   4.209416   3.661233   2.380834   1.405465
    22  H    3.933088   4.700848   4.391385   3.226027   1.994661
                    6          7          8          9         10
     6  C    0.000000
     7  H    3.895202   0.000000
     8  H    2.150569   4.299273   0.000000
     9  C    1.513682   5.408872   2.730853   0.000000
    10  H    2.156329   5.885672   2.358279   1.094102   0.000000
    11  H    2.181984   5.911794   3.494557   1.100142   1.763284
    12  H    2.181975   5.911621   3.494506   1.100143   1.763289
    13  C    3.844455   2.738205   2.743035   5.082665   5.022721
    14  H    4.116107   2.710781   3.068529   5.375389   5.332744
    15  H    4.488437   2.808461   3.503355   5.756328   5.730133
    16  H    4.047467   3.799175   2.385753   5.037383   4.742234
    17  C    3.833470   2.738659   5.407711   5.063820   5.952114
    18  H    4.178149   3.506006   5.888271   5.254181   6.198363
    19  H    4.614114   2.379279   5.897494   5.959574   6.768519
    20  H    4.177135   3.507978   5.888164   5.252478   6.196975
    21  O    2.458543   4.523187   4.601118   2.931692   4.006765
    22  H    2.543031   5.334239   4.650360   2.464912   3.555164
                   11         12         13         14         15
    11  H    0.000000
    12  H    1.776494   0.000000
    13  C    5.764709   5.764906   0.000000
    14  H    6.106549   5.989101   0.500000   0.000000
    15  H    6.291168   6.537239   1.097837   1.334066   0.000000
    16  H    5.751188   5.748989   1.095261   1.334767   1.770137
    17  C    5.286523   5.286343   5.084020   5.148571   5.293509
    18  H    5.247101   5.536653   5.759289   5.893788   5.850428
    19  H    6.235566   6.234848   5.037807   5.038169   5.113056
    20  H    5.534517   5.245165   5.760979   5.775045   6.113146
    21  O    2.947473   2.947413   5.723875   5.921408   6.202019
    22  H    2.330899   2.330870   6.199900   6.427323   6.735738
                   16         17         18         19         20
    16  H    0.000000
    17  C    5.976931   0.000000
    18  H    6.612948   1.096757   0.000000
    19  H    6.038401   1.094569   1.778397   0.000000
    20  H    6.612232   1.096722   1.756716   1.778449   0.000000
    21  O    6.220786   2.775182   2.749336   3.857312   2.746498
    22  H    6.551766   3.749024   3.672682   4.828538   3.669790
                   21         22
    21  O    0.000000
    22  H    0.974436   0.000000
 Symmetry turned off by external request.
 Stoichiometry    C9H12O
 Framework group  C1[X(C9H12O)]
 Deg. of freedom    60
 Full point group                 C1      NOp   1
 Rotational constants (GHZ):           1.7352743           1.2490501           0.7349178
 Standard basis: 6-31++G(d,p) (6D, 7F)
   262 basis functions,   416 primitive gaussians,   262 cartesian basis functions
    37 alpha electrons       37 beta electrons
       nuclear repulsion energy       516.3345238208 Hartrees.
 NAtoms=   22 NActive=   22 NUniq=   22 SFac= 1.00D+00 NAtFMM=   60 NAOKFM=F Big=F
 Integral buffers will be    131072 words long.
 Raffenetti 2 integral format.
 Two-electron integral symmetry is turned off.
 One-electron integrals computed using PRISM.
 NBasis=   262 RedAO= T EigKep=  1.33D-06  NBF=   262
 NBsUse=   261 1.00D-06 EigRej=  7.41D-07 NBFU=   261
 ExpMin= 3.60D-02 ExpMax= 5.48D+03 ExpMxC= 8.25D+02 IAcc=3 IRadAn=         5 AccDes= 0.00D+00
 Harris functional with IExCor=  402 and IRadAn=       5 diagonalized for initial guess.
 HarFok:  IExCor=  402 AccDes= 0.00D+00 IRadAn=         5 IDoV= 1 UseB2=F ITyADJ=14
 ICtDFT=  3500011 ScaDFX=  1.000000  1.000000  1.000000  1.000000
 FoFCou: FMM=F IPFlag=           0 FMFlag=      100000 FMFlg1=           0
         NFxFlg=           0 DoJE=T BraDBF=F KetDBF=T FulRan=T
         wScrn=  0.000000 ICntrl=       500 IOpCl=  0 I1Cent=   200000004 NGrid=           0
         NMat0=    1 NMatS0=      1 NMatT0=    0 NMatD0=    1 NMtDS0=    0 NMtDT0=    0
 Symmetry not used in FoFCou.
 Requested convergence on RMS density matrix=1.00D-08 within 128 cycles.
 Requested convergence on MAX density matrix=1.00D-06.
 Requested convergence on             energy=1.00D-06.
 No special actions if energy rises.
 SCF Done:  E(RB3LYP) =  -424.521597533     A.U. after   14 cycles
            NFock= 14  Conv=0.97D-08     -V/T= 2.0033

 **********************************************************************

            Population analysis using the SCF density.

 **********************************************************************

 Alpha  occ. eigenvalues --  -19.18431 -10.24601 -10.21072 -10.20148 -10.19958
 Alpha  occ. eigenvalues --  -10.19687 -10.19501 -10.18776 -10.18605 -10.17946
 Alpha  occ. eigenvalues --   -1.04825  -0.85809  -0.80287  -0.78558  -0.73103
 Alpha  occ. eigenvalues --   -0.69483  -0.67973  -0.60093  -0.57863  -0.53735
 Alpha  occ. eigenvalues --   -0.49805  -0.47065  -0.44471  -0.43778  -0.42735
 Alpha  occ. eigenvalues --   -0.41422  -0.40894  -0.40448  -0.40306  -0.38193
 Alpha  occ. eigenvalues --   -0.37359  -0.36815  -0.34614  -0.33343  -0.32375
 Alpha  occ. eigenvalues --   -0.24046  -0.21718
 Alpha virt. eigenvalues --   -0.01587  -0.00827  -0.00205   0.00685   0.00720
 Alpha virt. eigenvalues --    0.02251   0.02539   0.02707   0.04015   0.04322
 Alpha virt. eigenvalues --    0.04370   0.05261   0.05493   0.06981   0.07618
 Alpha virt. eigenvalues --    0.08193   0.09129   0.09533   0.10319   0.10604
 Alpha virt. eigenvalues --    0.11749   0.12039   0.12167   0.12356   0.13125
 Alpha virt. eigenvalues --    0.13453   0.13674   0.14220   0.14351   0.14590
 Alpha virt. eigenvalues --    0.15299   0.16167   0.16613   0.16736   0.17112
 Alpha virt. eigenvalues --    0.17456   0.17816   0.18330   0.18435   0.18697
 Alpha virt. eigenvalues --    0.20014   0.20166   0.20631   0.21841   0.22083
 Alpha virt. eigenvalues --    0.22696   0.23155   0.24800   0.25561   0.26369
 Alpha virt. eigenvalues --    0.27100   0.27216   0.27607   0.28550   0.29082
 Alpha virt. eigenvalues --    0.29538   0.30427   0.31098   0.31432   0.32201
 Alpha virt. eigenvalues --    0.32347   0.33147   0.33814   0.34546   0.34822
 Alpha virt. eigenvalues --    0.38369   0.38896   0.41267   0.41731   0.42888
 Alpha virt. eigenvalues --    0.44196   0.44617   0.46660   0.50623   0.57668
 Alpha virt. eigenvalues --    0.60700   0.63002   0.67750   0.69066   0.70359
 Alpha virt. eigenvalues --    0.70850   0.71267   0.71970   0.72422   0.74694
 Alpha virt. eigenvalues --    0.76205   0.76903   0.77226   0.77530   0.78667
 Alpha virt. eigenvalues --    0.80189   0.81181   0.82112   0.83283   0.84842
 Alpha virt. eigenvalues --    0.88786   0.89776   0.93025   0.95658   0.96761
 Alpha virt. eigenvalues --    1.00775   1.01482   1.03296   1.04864   1.06594
 Alpha virt. eigenvalues --    1.08031   1.10674   1.11738   1.13710   1.17540
 Alpha virt. eigenvalues --    1.18229   1.19394   1.20522   1.22549   1.23327
 Alpha virt. eigenvalues --    1.23521   1.24935   1.27112   1.27954   1.28527
 Alpha virt. eigenvalues --    1.30748   1.31667   1.33359   1.36757   1.38060
 Alpha virt. eigenvalues --    1.40982   1.42396   1.42829   1.50861   1.56531
 Alpha virt. eigenvalues --    1.60249   1.64568   1.69498   1.70078   1.71587
 Alpha virt. eigenvalues --    1.73544   1.76964   1.77541   1.79732   1.80815
 Alpha virt. eigenvalues --    1.81619   1.82684   1.86592   1.87528   1.89558
 Alpha virt. eigenvalues --    1.93865   1.96645   1.98810   2.01094   2.01758
 Alpha virt. eigenvalues --    2.03132   2.04657   2.05323   2.10388   2.11228
 Alpha virt. eigenvalues --    2.12666   2.13973   2.15318   2.18124   2.19683
 Alpha virt. eigenvalues --    2.23425   2.25603   2.27521   2.28283   2.29253
 Alpha virt. eigenvalues --    2.30497   2.33737   2.34213   2.37105   2.41993
 Alpha virt. eigenvalues --    2.44293   2.45410   2.46774   2.49644   2.54144
 Alpha virt. eigenvalues --    2.54703   2.55444   2.58029   2.59728   2.64544
 Alpha virt. eigenvalues --    2.64940   2.67175   2.68763   2.71099   2.73482
 Alpha virt. eigenvalues --    2.76823   2.78371   2.79689   2.83014   2.84966
 Alpha virt. eigenvalues --    2.87255   2.87299   2.90338   2.92063   3.05306
 Alpha virt. eigenvalues --    3.07865   3.09018   3.12897   3.24128   3.25145
 Alpha virt. eigenvalues --    3.27291   3.30324   3.35324   3.41942   3.42195
 Alpha virt. eigenvalues --    3.44730   3.44882   3.50293   3.51438   3.53757
 Alpha virt. eigenvalues --    3.70921   3.75482   3.84241   4.29315   4.34750
 Alpha virt. eigenvalues --    4.36495   4.41134   4.46621   4.49288   4.58437
 Alpha virt. eigenvalues --    4.59370   4.66081   4.86796  10.23027
          Condensed to atoms (all electrons):
               1          2          3          4          5          6
     1  C   24.591601  -7.618753  -0.661667   3.817254  -7.319436  -5.921636
     2  C   -7.618753  12.321407  -2.466143  -0.778995   3.330308   2.195227
     3  C   -0.661667  -2.466143  13.360045  -3.134472  -2.119369   1.982576
     4  C    3.817254  -0.778995  -3.134472  11.018359   0.324081  -3.743324
     5  C   -7.319436   3.330308  -2.119369   0.324081  11.679400   0.955340
     6  C   -5.921636   2.195227   1.982576  -3.743324   0.955340  12.349379
     7  H    0.201677  -0.104639   0.546946  -0.182634  -0.125328   0.072216
     8  H    0.837629  -0.299067   0.089178   0.177556  -0.105233  -0.281809
     9  C    0.306429  -0.887655   0.963124  -0.735947  -0.800572  -0.974529
    10  H   -0.133328   0.047365  -0.031849  -0.015447   0.088845  -0.084399
    11  H    0.041929  -0.036180   0.031289  -0.023359  -0.059169  -0.152955
    12  H    0.008561  -0.017488   0.023853  -0.025437  -0.036797  -0.134676
    13  C   -2.798866   1.036344  -1.195122  -0.281538   0.746367   0.308993
    14  H    0.188118   0.142872  -0.117668   0.082439   0.044482  -0.016887
    15  H    0.213134  -0.178721   0.015709   0.038070  -0.060508  -0.063239
    16  H    0.071896  -0.105164   0.072399  -0.031259  -0.041593  -0.028255
    17  C    1.463398  -0.854170  -0.175396  -0.344474  -1.398719  -0.864861
    18  H    0.030258  -0.025707   0.020786  -0.107534  -0.063950  -0.024269
    19  H   -0.040453   0.020392  -0.006457  -0.138975   0.049859   0.011693
    20  H    0.026058  -0.031578   0.052712  -0.126336  -0.067815  -0.019014
    21  O    0.110509  -0.068579   0.063556  -0.480468   0.183862   0.141854
    22  H    0.020977   0.015754  -0.048775   0.185447   0.072777  -0.194295
               7          8          9         10         11         12
     1  C    0.201677   0.837629   0.306429  -0.133328   0.041929   0.008561
     2  C   -0.104639  -0.299067  -0.887655   0.047365  -0.036180  -0.017488
     3  C    0.546946   0.089178   0.963124  -0.031849   0.031289   0.023853
     4  C   -0.182634   0.177556  -0.735947  -0.015447  -0.023359  -0.025437
     5  C   -0.125328  -0.105233  -0.800572   0.088845  -0.059169  -0.036797
     6  C    0.072216  -0.281809  -0.974529  -0.084399  -0.152955  -0.134676
     7  H    0.714215  -0.000460   0.031555  -0.000706   0.000641   0.000314
     8  H   -0.000460   0.753684  -0.037249  -0.006857   0.002103   0.001138
     9  C    0.031555  -0.037249   7.653142   0.468070   0.543868   0.526638
    10  H   -0.000706  -0.006857   0.468070   0.493214  -0.014990  -0.014510
    11  H    0.000641   0.002103   0.543868  -0.014990   0.568673  -0.051980
    12  H    0.000314   0.001138   0.526638  -0.014510  -0.051980   0.568374
    13  C   -0.155355  -0.200361  -0.274574   0.011645  -0.006247  -0.003180
    14  H   -0.013771   0.004414  -0.018025   0.001544  -0.000214  -0.000515
    15  H    0.001713   0.011770   0.003928  -0.000935  -0.000084   0.000195
    16  H    0.007322   0.007572   0.013417  -0.001476   0.000402   0.000143
    17  C   -0.023970   0.037452  -0.128644  -0.003571  -0.001194  -0.001925
    18  H    0.001791   0.000524  -0.002854  -0.000098  -0.000081   0.000106
    19  H   -0.002526  -0.000668  -0.000699   0.000176  -0.000084   0.000000
    20  H    0.003511   0.000369  -0.001680  -0.000070   0.000117  -0.000082
    21  O   -0.001146  -0.001372   0.056104   0.002232   0.004734   0.004349
    22  H   -0.001056  -0.000475  -0.055393   0.003921  -0.010823  -0.010669
              13         14         15         16         17         18
     1  C   -2.798866   0.188118   0.213134   0.071896   1.463398   0.030258
     2  C    1.036344   0.142872  -0.178721  -0.105164  -0.854170  -0.025707
     3  C   -1.195122  -0.117668   0.015709   0.072399  -0.175396   0.020786
     4  C   -0.281538   0.082439   0.038070  -0.031259  -0.344474  -0.107534
     5  C    0.746367   0.044482  -0.060508  -0.041593  -1.398719  -0.063950
     6  C    0.308993  -0.016887  -0.063239  -0.028255  -0.864861  -0.024269
     7  H   -0.155355  -0.013771   0.001713   0.007322  -0.023970   0.001791
     8  H   -0.200361   0.004414   0.011770   0.007572   0.037452   0.000524
     9  C   -0.274574  -0.018025   0.003928   0.013417  -0.128644  -0.002854
    10  H    0.011645   0.001544  -0.000935  -0.001476  -0.003571  -0.000098
    11  H   -0.006247  -0.000214  -0.000084   0.000402  -0.001194  -0.000081
    12  H   -0.003180  -0.000515   0.000195   0.000143  -0.001925   0.000106
    13  C    8.104392  -0.370440   0.361543   0.407694  -0.257872  -0.002219
    14  H   -0.370440   1.197061  -0.024566  -0.019938  -0.013629   0.000175
    15  H    0.361543  -0.024566   0.564984  -0.022952   0.016176   0.000053
    16  H    0.407694  -0.019938  -0.022952   0.548956   0.000806  -0.000078
    17  C   -0.257872  -0.013629   0.016176   0.000806   7.542652   0.522669
    18  H   -0.002219   0.000175   0.000053  -0.000078   0.522669   0.534514
    19  H    0.003071   0.000601   0.000172   0.000042   0.439828  -0.028927
    20  H   -0.002832  -0.000558   0.000068   0.000038   0.517822  -0.024538
    21  O   -0.004587  -0.000762   0.000201   0.000334  -0.076043  -0.003537
    22  H    0.006068   0.000453  -0.000090  -0.000229   0.019675   0.000083
              19         20         21         22
     1  C   -0.040453   0.026058   0.110509   0.020977
     2  C    0.020392  -0.031578  -0.068579   0.015754
     3  C   -0.006457   0.052712   0.063556  -0.048775
     4  C   -0.138975  -0.126336  -0.480468   0.185447
     5  C    0.049859  -0.067815   0.183862   0.072777
     6  C    0.011693  -0.019014   0.141854  -0.194295
     7  H   -0.002526   0.003511  -0.001146  -0.001056
     8  H   -0.000668   0.000369  -0.001372  -0.000475
     9  C   -0.000699  -0.001680   0.056104  -0.055393
    10  H    0.000176  -0.000070   0.002232   0.003921
    11  H   -0.000084   0.000117   0.004734  -0.010823
    12  H    0.000000  -0.000082   0.004349  -0.010669
    13  C    0.003071  -0.002832  -0.004587   0.006068
    14  H    0.000601  -0.000558  -0.000762   0.000453
    15  H    0.000172   0.000068   0.000201  -0.000090
    16  H    0.000042   0.000038   0.000334  -0.000229
    17  C    0.439828   0.517822  -0.076043   0.019675
    18  H   -0.028927  -0.024538  -0.003537   0.000083
    19  H    0.548130  -0.030656   0.004174  -0.000412
    20  H   -0.030656   0.534961  -0.003664   0.000126
    21  O    0.004174  -0.003664   8.419235   0.172622
    22  H   -0.000412   0.000126   0.172622   0.436967
 Mulliken charges:
               1
     1  C   -1.435288
     2  C    0.363169
     3  C   -1.265252
     4  C    0.506992
     5  C    0.723167
     6  C    0.486870
     7  H    0.029691
     8  H    0.010163
     9  C   -0.648452
    10  H    0.191224
    11  H    0.163606
    12  H    0.163585
    13  C    0.567077
    14  H   -0.065185
    15  H    0.123381
    16  H    0.119924
    17  C   -0.416007
    18  H    0.172835
    19  H    0.171719
    20  H    0.173041
    21  O   -0.523608
    22  H    0.387349
 Sum of Mulliken charges =   0.00000
 Mulliken charges with hydrogens summed into heavy atoms:
               1
     1  C   -1.425125
     2  C    0.363169
     3  C   -1.235561
     4  C    0.506992
     5  C    0.723167
     6  C    0.486870
     9  C   -0.130037
    13  C    0.745196
    17  C    0.101588
    21  O   -0.136259
 Electronic spatial extent (au):  <R**2>=           2250.9907
 Charge=              0.0000 electrons
 Dipole moment (field-independent basis, Debye):
    X=             -0.8180    Y=             -0.0659    Z=             -1.1557  Tot=              1.4174
 Quadrupole moment (field-independent basis, Debye-Ang):
   XX=            -63.0546   YY=            -64.0614   ZZ=            -53.0153
   XY=              0.0301   XZ=             -3.1622   YZ=             -0.3012
 Traceless Quadrupole moment (field-independent basis, Debye-Ang):
   XX=             -3.0109   YY=             -4.0176   ZZ=              7.0285
   XY=              0.0301   XZ=             -3.1622   YZ=             -0.3012
 Octapole moment (field-independent basis, Debye-Ang**2):
  XXX=           -287.0270  YYY=              1.6158  ZZZ=            -94.3724  XYY=            -91.3705
  XXY=              0.7658  XXZ=            -39.4216  XZZ=            -71.3402  YZZ=             -0.5078
  YYZ=            -34.2474  XYZ=              0.2834
 Hexadecapole moment (field-independent basis, Debye-Ang**3):
 XXXX=          -1980.5592 YYYY=            -91.6051 ZZZZ=          -1036.9652 XXXY=             -2.9210
 XXXZ=           -115.8755 YYYX=             -2.3497 YYYZ=              4.5632 ZZZX=           -114.2449
 ZZZY=              1.5775 XXYY=           -331.9226 XXZZ=           -432.3026 YYZZ=           -200.2480
 XXYZ=              1.8142 YYXZ=            -35.9638 ZZXY=              0.4342
 N-N= 5.163345238208D+02 E-N=-2.019084931285D+03  KE= 4.231358156453D+02
 Variable Step   Value    
 -------- ---- -----------
    13       1    1.133836
 ---------------------------------------------------------------------------------------------------
                            Z-MATRIX (ANGSTROMS AND DEGREES)
   CD    Cent   Atom    N1       Length/X        N2       Alpha/Y        N3        Beta/Z          J
 ---------------------------------------------------------------------------------------------------
      1      1  C 
      2      2  C        1   1.401724(     1)
      3      3  C        2   1.406789(     2)      1  118.055(    22)
      4      4  C        3   1.400915(     3)      2  122.112(    23)      1   -0.009(    42)      0
      5      5  C        4   1.405746(     4)      3  117.824(    24)      2   -0.001(    43)      0
      6      6  C        5   1.404289(     5)      4  122.156(    25)      3    0.007(    44)      0
      7      7  H        3   1.087747(     6)      2  119.407(    26)      1  179.986(    45)      0
      8      8  H        1   1.087556(     7)      2  119.427(    27)      3 -179.989(    46)      0
      9      9  C        6   1.513682(     8)      5  120.963(    28)      4  179.989(    47)      0
     10     10  H        9   1.094102(     9)      6  110.528(    29)      5 -179.995(    48)      0
     11     11  H        9   1.100142(    10)      6  112.220(    30)      5   60.715(    49)      0
     12     12  H        9   1.100143(    11)      6  112.220(    31)      5  -60.706(    50)      0
     13     13  C        2   1.514771(    12)      1  121.203(    32)      6 -179.963(    51)      0
     14     14  H       13   0.600000(    13)      2  111.483(    33)      1 -120.596(    52)      0
     15     15  H       13   1.097837(    14)      2  111.482(    34)      1  119.653(    53)      0
     16     16  H       13   1.095261(    15)      2  111.193(    35)      1   -0.464(    54)      0
     17     17  C        4   1.509153(    16)      3  122.005(    36)      2 -179.998(    55)      0
     18     18  H       17   1.096757(    17)      4  111.242(    37)      3  120.656(    56)      0
     19     19  H       17   1.094569(    18)      4  110.769(    38)      3   -0.105(    57)      0
     20     20  H       17   1.096722(    19)      4  111.243(    39)      3 -120.877(    58)      0
     21     21  O        5   1.405465(    20)      4  115.754(    40)      3 -179.998(    59)      0
     22     22  H       21   0.974436(    21)      5  112.627(    41)      4 -179.993(    60)      0
 ---------------------------------------------------------------------------------------------------
                         Z-Matrix orientation:                         
 ---------------------------------------------------------------------
 Center     Atomic      Atomic             Coordinates (Angstroms)
 Number     Number       Type             X           Y           Z
 ---------------------------------------------------------------------
      1          6           0        0.000000    0.000000    0.000000
      2          6           0        0.000000    0.000000    1.401724
      3          6           0        1.241488    0.000000    2.063361
      4          6           0        2.456750   -0.000177    1.366439
      5          6           0        2.407463   -0.000387   -0.038442
      6          6           0        1.193111   -0.000277   -0.743693
      7          1           0        1.267147    0.000235    3.150805
      8          1           0       -0.947242    0.000179   -0.534331
      9          6           0        1.171532   -0.000268   -2.257221
     10          1           0        0.141536   -0.000091   -2.626230
     11          1           0        1.663642   -0.888595   -2.680325
     12          1           0        1.663947    0.887899   -2.680306
     13          6           0       -1.295637   -0.000528    2.186489
     14          1           0       -1.336558    0.480042    2.543389
     15          1           0       -1.377295   -0.888347    2.827079
     16          1           0       -2.163344    0.007384    1.518195
     17          6           0        3.787241   -0.000228    2.078715
     18          1           0        4.383478   -0.879688    1.806822
     19          1           0        3.646388    0.001770    3.164181
     20          1           0        4.385230    0.877024    1.803694
     21          8           0        3.651135   -0.000610   -0.693127
     22          1           0        3.563909   -0.000647   -1.663651
 ---------------------------------------------------------------------
                    Distance matrix (angstroms):
                    1          2          3          4          5
     1  C    0.000000
     2  C    1.401724   0.000000
     3  C    2.408059   1.406789   0.000000
     4  C    2.811188   2.457003   1.400915   0.000000
     5  C    2.407769   2.805344   2.403554   1.405746   0.000000
     6  C    1.405914   2.454858   2.807470   2.459561   1.404289
     7  H    3.396062   2.159849   1.087747   2.144555   3.386978
     8  H    1.087556   2.155359   3.396843   3.898729   3.391158
     9  C    2.543135   3.841922   4.321148   3.844828   2.539784
    10  H    2.630041   4.030439   4.816861   4.615368   3.439632
    11  H    3.277414   4.496713   4.844623   4.218366   2.884740
    12  H    3.277366   4.496671   4.844503   4.218218   2.884668
    13  C    2.541537   1.514771   2.540110   3.840949   4.320100
    14  H    2.913015   1.822149   2.665930   4.000625   4.573221
    15  H    3.267794   2.172036   2.868876   4.197882   4.829501
    16  H    2.642920   2.166490   3.448208   4.622592   4.828608
    17  C    4.320214   3.847273   2.545800   1.509153   2.527082
    18  H    4.822171   4.489191   3.272883   2.163275   2.843028
    19  H    4.827856   4.049988   2.644873   2.155718   3.433910
    20  H    4.822108   4.490100   3.274098   2.163264   2.841633
    21  O    3.716344   4.209416   3.661233   2.380834   1.405465
    22  H    3.933088   4.700848   4.391385   3.226027   1.994661
                    6          7          8          9         10
     6  C    0.000000
     7  H    3.895202   0.000000
     8  H    2.150569   4.299273   0.000000
     9  C    1.513682   5.408872   2.730853   0.000000
    10  H    2.156329   5.885672   2.358279   1.094102   0.000000
    11  H    2.181984   5.911794   3.494557   1.100142   1.763284
    12  H    2.181975   5.911621   3.494506   1.100143   1.763289
    13  C    3.844455   2.738205   2.743035   5.082665   5.022721
    14  H    4.175505   2.716329   3.139139   5.437561   5.398171
    15  H    4.488437   2.808461   3.503355   5.756328   5.730133
    16  H    4.047467   3.799175   2.385753   5.037383   4.742234
    17  C    3.833470   2.738659   5.407711   5.063820   5.952114
    18  H    4.178149   3.506006   5.888271   5.254181   6.198363
    19  H    4.614114   2.379279   5.897494   5.959574   6.768519
    20  H    4.177135   3.507978   5.888164   5.252478   6.196975
    21  O    2.458543   4.523187   4.601118   2.931692   4.006765
    22  H    2.543031   5.334239   4.650360   2.464912   3.555164
                   11         12         13         14         15
    11  H    0.000000
    12  H    1.776494   0.000000
    13  C    5.764709   5.764906   0.000000
    14  H    6.177504   6.037911   0.600000   0.000000
    15  H    6.291168   6.537239   1.097837   1.398080   0.000000
    16  H    5.751188   5.748989   1.095261   1.399287   1.770137
    17  C    5.286523   5.286343   5.084020   5.167194   5.293509
    18  H    5.247101   5.536653   5.759289   5.925386   5.850428
    19  H    6.235566   6.234848   5.037807   5.044192   5.113056
    20  H    5.534517   5.245165   5.760979   5.783044   6.113146
    21  O    2.947473   2.947413   5.723875   5.965161   6.202019
    22  H    2.330899   2.330870   6.199900   6.476482   6.735738
                   16         17         18         19         20
    16  H    0.000000
    17  C    5.976931   0.000000
    18  H    6.612948   1.096757   0.000000
    19  H    6.038401   1.094569   1.778397   0.000000
    20  H    6.612232   1.096722   1.756716   1.778449   0.000000
    21  O    6.220786   2.775182   2.749336   3.857312   2.746498
    22  H    6.551766   3.749024   3.672682   4.828538   3.669790
                   21         22
    21  O    0.000000
    22  H    0.974436   0.000000
 Symmetry turned off by external request.
 Stoichiometry    C9H12O
 Framework group  C1[X(C9H12O)]
 Deg. of freedom    60
 Full point group                 C1      NOp   1
 Rotational constants (GHZ):           1.7346448           1.2480616           0.7346212
 Standard basis: 6-31++G(d,p) (6D, 7F)
   262 basis functions,   416 primitive gaussians,   262 cartesian basis functions
    37 alpha electrons       37 beta electrons
       nuclear repulsion energy       515.0919348138 Hartrees.
 NAtoms=   22 NActive=   22 NUniq=   22 SFac= 1.00D+00 NAtFMM=   60 NAOKFM=F Big=F
 Integral buffers will be    131072 words long.
 Raffenetti 2 integral format.
 Two-electron integral symmetry is turned off.
 One-electron integrals computed using PRISM.
 NBasis=   262 RedAO= T EigKep=  1.34D-06  NBF=   262
 NBsUse=   261 1.00D-06 EigRej=  7.41D-07 NBFU=   261
 Initial guess from the checkpoint file:  "C:\Users\Administrator\Desktop\dataset_dft\C8H6O3\C8H6O3.chk"
 B after Tr=    -0.000523    0.004146    0.002575
         Rot=    1.000000    0.000283   -0.000190    0.000471 Ang=   0.07 deg.
 ExpMin= 3.60D-02 ExpMax= 5.48D+03 ExpMxC= 8.25D+02 IAcc=3 IRadAn=         5 AccDes= 0.00D+00
 Harris functional with IExCor=  402 and IRadAn=       5 diagonalized for initial guess.
 HarFok:  IExCor=  402 AccDes= 0.00D+00 IRadAn=         5 IDoV= 1 UseB2=F ITyADJ=14
 ICtDFT=  3500011 ScaDFX=  1.000000  1.000000  1.000000  1.000000
 FoFCou: FMM=F IPFlag=           0 FMFlag=      100000 FMFlg1=           0
         NFxFlg=           0 DoJE=T BraDBF=F KetDBF=T FulRan=T
         wScrn=  0.000000 ICntrl=       500 IOpCl=  0 I1Cent=   200000004 NGrid=           0
         NMat0=    1 NMatS0=      1 NMatT0=    0 NMatD0=    1 NMtDS0=    0 NMtDT0=    0
 Symmetry not used in FoFCou.
 Requested convergence on RMS density matrix=1.00D-08 within 128 cycles.
 Requested convergence on MAX density matrix=1.00D-06.
 Requested convergence on             energy=1.00D-06.
 No special actions if energy rises.
 SCF Done:  E(RB3LYP) =  -424.979283737     A.U. after   13 cycles
            NFock= 13  Conv=0.23D-08     -V/T= 2.0057
 Variable Step   Value    
 -------- ---- -----------
    13       2    1.322808
 ---------------------------------------------------------------------------------------------------
                            Z-MATRIX (ANGSTROMS AND DEGREES)
   CD    Cent   Atom    N1       Length/X        N2       Alpha/Y        N3        Beta/Z          J
 ---------------------------------------------------------------------------------------------------
      1      1  C 
      2      2  C        1   1.401724(     1)
      3      3  C        2   1.406789(     2)      1  118.055(    22)
      4      4  C        3   1.400915(     3)      2  122.112(    23)      1   -0.009(    42)      0
      5      5  C        4   1.405746(     4)      3  117.824(    24)      2   -0.001(    43)      0
      6      6  C        5   1.404289(     5)      4  122.156(    25)      3    0.007(    44)      0
      7      7  H        3   1.087747(     6)      2  119.407(    26)      1  179.986(    45)      0
      8      8  H        1   1.087556(     7)      2  119.427(    27)      3 -179.989(    46)      0
      9      9  C        6   1.513682(     8)      5  120.963(    28)      4  179.989(    47)      0
     10     10  H        9   1.094102(     9)      6  110.528(    29)      5 -179.995(    48)      0
     11     11  H        9   1.100142(    10)      6  112.220(    30)      5   60.715(    49)      0
     12     12  H        9   1.100143(    11)      6  112.220(    31)      5  -60.706(    50)      0
     13     13  C        2   1.514771(    12)      1  121.203(    32)      6 -179.963(    51)      0
     14     14  H       13   0.700000(    13)      2  111.483(    33)      1 -120.596(    52)      0
     15     15  H       13   1.097837(    14)      2  111.482(    34)      1  119.653(    53)      0
     16     16  H       13   1.095261(    15)      2  111.193(    35)      1   -0.464(    54)      0
     17     17  C        4   1.509153(    16)      3  122.005(    36)      2 -179.998(    55)      0
     18     18  H       17   1.096757(    17)      4  111.242(    37)      3  120.656(    56)      0
     19     19  H       17   1.094569(    18)      4  110.769(    38)      3   -0.105(    57)      0
     20     20  H       17   1.096722(    19)      4  111.243(    39)      3 -120.877(    58)      0
     21     21  O        5   1.405465(    20)      4  115.754(    40)      3 -179.998(    59)      0
     22     22  H       21   0.974436(    21)      5  112.627(    41)      4 -179.993(    60)      0
 ---------------------------------------------------------------------------------------------------
                         Z-Matrix orientation:                         
 ---------------------------------------------------------------------
 Center     Atomic      Atomic             Coordinates (Angstroms)
 Number     Number       Type             X           Y           Z
 ---------------------------------------------------------------------
      1          6           0        0.000000    0.000000    0.000000
      2          6           0        0.000000    0.000000    1.401724
      3          6           0        1.241488    0.000000    2.063361
      4          6           0        2.456750   -0.000177    1.366439
      5          6           0        2.407463   -0.000387   -0.038442
      6          6           0        1.193111   -0.000277   -0.743693
      7          1           0        1.267147    0.000235    3.150805
      8          1           0       -0.947242    0.000179   -0.534331
      9          6           0        1.171532   -0.000268   -2.257221
     10          1           0        0.141536   -0.000091   -2.626230
     11          1           0        1.663642   -0.888595   -2.680325
     12          1           0        1.663947    0.887899   -2.680306
     13          6           0       -1.295637   -0.000528    2.186489
     14          1           0       -1.343378    0.560137    2.602873
     15          1           0       -1.377295   -0.888347    2.827079
     16          1           0       -2.163344    0.007384    1.518195
     17          6           0        3.787241   -0.000228    2.078715
     18          1           0        4.383478   -0.879688    1.806822
     19          1           0        3.646388    0.001770    3.164181
     20          1           0        4.385230    0.877024    1.803694
     21          8           0        3.651135   -0.000610   -0.693127
     22          1           0        3.563909   -0.000647   -1.663651
 ---------------------------------------------------------------------
                    Distance matrix (angstroms):
                    1          2          3          4          5
     1  C    0.000000
     2  C    1.401724   0.000000
     3  C    2.408059   1.406789   0.000000
     4  C    2.811188   2.457003   1.400915   0.000000
     5  C    2.407769   2.805344   2.403554   1.405746   0.000000
     6  C    1.405914   2.454858   2.807470   2.459561   1.404289
     7  H    3.396062   2.159849   1.087747   2.144555   3.386978
     8  H    1.087556   2.155359   3.396843   3.898729   3.391158
     9  C    2.543135   3.841922   4.321148   3.844828   2.539784
    10  H    2.630041   4.030439   4.816861   4.615368   3.439632
    11  H    3.277414   4.496713   4.844623   4.218366   2.884740
    12  H    3.277366   4.496671   4.844503   4.218218   2.884668
    13  C    2.541537   1.514771   2.540110   3.840949   4.320100
    14  H    2.982174   1.887108   2.699325   4.035305   4.621638
    15  H    3.267794   2.172036   2.868876   4.197882   4.829501
    16  H    2.642920   2.166490   3.448208   4.622592   4.828608
    17  C    4.320214   3.847273   2.545800   1.509153   2.527082
    18  H    4.822171   4.489191   3.272883   2.163275   2.843028
    19  H    4.827856   4.049988   2.644873   2.155718   3.433910
    20  H    4.822108   4.490100   3.274098   2.163264   2.841633
    21  O    3.716344   4.209416   3.661233   2.380834   1.405465
    22  H    3.933088   4.700848   4.391385   3.226027   1.994661
                    6          7          8          9         10
     6  C    0.000000
     7  H    3.895202   0.000000
     8  H    2.150569   4.299273   0.000000
     9  C    1.513682   5.408872   2.730853   0.000000
    10  H    2.156329   5.885672   2.358279   1.094102   0.000000
    11  H    2.181984   5.911794   3.494557   1.100142   1.763284
    12  H    2.181975   5.911621   3.494506   1.100143   1.763289
    13  C    3.844455   2.738205   2.743035   5.082665   5.022721
    14  H    4.236430   2.725538   3.211311   5.500849   5.464644
    15  H    4.488437   2.808461   3.503355   5.756328   5.730133
    16  H    4.047467   3.799175   2.385753   5.037383   4.742234
    17  C    3.833470   2.738659   5.407711   5.063820   5.952114
    18  H    4.178149   3.506006   5.888271   5.254181   6.198363
    19  H    4.614114   2.379279   5.897494   5.959574   6.768519
    20  H    4.177135   3.507978   5.888164   5.252478   6.196975
    21  O    2.458543   4.523187   4.601118   2.931692   4.006765
    22  H    2.543031   5.334239   4.650360   2.464912   3.555164
                   11         12         13         14         15
    11  H    0.000000
    12  H    1.776494   0.000000
    13  C    5.764709   5.764906   0.000000
    14  H    6.249253   6.087973   0.700000   0.000000
    15  H    6.291168   6.537239   1.097837   1.466126   0.000000
    16  H    5.751188   5.748989   1.095261   1.467790   1.770137
    17  C    5.286523   5.286343   5.084020   5.187678   5.293509
    18  H    5.247101   5.536653   5.759289   5.958495   5.850428
    19  H    6.235566   6.234848   5.037807   5.052188   5.113056
    20  H    5.534517   5.245165   5.760979   5.792759   6.113146
    21  O    2.947473   2.947413   5.723875   6.010259   6.202019
    22  H    2.330899   2.330870   6.199900   6.526804   6.735738
                   16         17         18         19         20
    16  H    0.000000
    17  C    5.976931   0.000000
    18  H    6.612948   1.096757   0.000000
    19  H    6.038401   1.094569   1.778397   0.000000
    20  H    6.612232   1.096722   1.756716   1.778449   0.000000
    21  O    6.220786   2.775182   2.749336   3.857312   2.746498
    22  H    6.551766   3.749024   3.672682   4.828538   3.669790
                   21         22
    21  O    0.000000
    22  H    0.974436   0.000000
 Symmetry turned off by external request.
 Stoichiometry    C9H12O
 Framework group  C1[X(C9H12O)]
 Deg. of freedom    60
 Full point group                 C1      NOp   1
 Rotational constants (GHZ):           1.7339178           1.2470256           0.7343167
 Standard basis: 6-31++G(d,p) (6D, 7F)
   262 basis functions,   416 primitive gaussians,   262 cartesian basis functions
    37 alpha electrons       37 beta electrons
       nuclear repulsion energy       514.1524709074 Hartrees.
 NAtoms=   22 NActive=   22 NUniq=   22 SFac= 1.00D+00 NAtFMM=   60 NAOKFM=F Big=F
 Integral buffers will be    131072 words long.
 Raffenetti 2 integral format.
 Two-electron integral symmetry is turned off.
 One-electron integrals computed using PRISM.
 NBasis=   262 RedAO= T EigKep=  1.34D-06  NBF=   262
 NBsUse=   261 1.00D-06 EigRej=  7.41D-07 NBFU=   261
 Initial guess from the checkpoint file:  "C:\Users\Administrator\Desktop\dataset_dft\C8H6O3\C8H6O3.chk"
 B after Tr=    -0.000525    0.004143    0.002575
         Rot=    1.000000    0.000283   -0.000189    0.000470 Ang=   0.07 deg.
 ExpMin= 3.60D-02 ExpMax= 5.48D+03 ExpMxC= 8.25D+02 IAcc=3 IRadAn=         5 AccDes= 0.00D+00
 Harris functional with IExCor=  402 and IRadAn=       5 diagonalized for initial guess.
 HarFok:  IExCor=  402 AccDes= 0.00D+00 IRadAn=         5 IDoV= 1 UseB2=F ITyADJ=14
 ICtDFT=  3500011 ScaDFX=  1.000000  1.000000  1.000000  1.000000
 FoFCou: FMM=F IPFlag=           0 FMFlag=      100000 FMFlg1=           0
         NFxFlg=           0 DoJE=T BraDBF=F KetDBF=T FulRan=T
         wScrn=  0.000000 ICntrl=       500 IOpCl=  0 I1Cent=   200000004 NGrid=           0
         NMat0=    1 NMatS0=      1 NMatT0=    0 NMatD0=    1 NMtDS0=    0 NMtDT0=    0
 Symmetry not used in FoFCou.
 Requested convergence on RMS density matrix=1.00D-08 within 128 cycles.
 Requested convergence on MAX density matrix=1.00D-06.
 Requested convergence on             energy=1.00D-06.
 No special actions if energy rises.
 SCF Done:  E(RB3LYP) =  -425.225120569     A.U. after   13 cycles
            NFock= 13  Conv=0.29D-08     -V/T= 2.0074
 Variable Step   Value    
 -------- ---- -----------
    13       3    1.511781
 ---------------------------------------------------------------------------------------------------
                            Z-MATRIX (ANGSTROMS AND DEGREES)
   CD    Cent   Atom    N1       Length/X        N2       Alpha/Y        N3        Beta/Z          J
 ---------------------------------------------------------------------------------------------------
      1      1  C 
      2      2  C        1   1.401724(     1)
      3      3  C        2   1.406789(     2)      1  118.055(    22)
      4      4  C        3   1.400915(     3)      2  122.112(    23)      1   -0.009(    42)      0
      5      5  C        4   1.405746(     4)      3  117.824(    24)      2   -0.001(    43)      0
      6      6  C        5   1.404289(     5)      4  122.156(    25)      3    0.007(    44)      0
      7      7  H        3   1.087747(     6)      2  119.407(    26)      1  179.986(    45)      0
      8      8  H        1   1.087556(     7)      2  119.427(    27)      3 -179.989(    46)      0
      9      9  C        6   1.513682(     8)      5  120.963(    28)      4  179.989(    47)      0
     10     10  H        9   1.094102(     9)      6  110.528(    29)      5 -179.995(    48)      0
     11     11  H        9   1.100142(    10)      6  112.220(    30)      5   60.715(    49)      0
     12     12  H        9   1.100143(    11)      6  112.220(    31)      5  -60.706(    50)      0
     13     13  C        2   1.514771(    12)      1  121.203(    32)      6 -179.963(    51)      0
     14     14  H       13   0.800000(    13)      2  111.483(    33)      1 -120.596(    52)      0
     15     15  H       13   1.097837(    14)      2  111.482(    34)      1  119.653(    53)      0
     16     16  H       13   1.095261(    15)      2  111.193(    35)      1   -0.464(    54)      0
     17     17  C        4   1.509153(    16)      3  122.005(    36)      2 -179.998(    55)      0
     18     18  H       17   1.096757(    17)      4  111.242(    37)      3  120.656(    56)      0
     19     19  H       17   1.094569(    18)      4  110.769(    38)      3   -0.105(    57)      0
     20     20  H       17   1.096722(    19)      4  111.243(    39)      3 -120.877(    58)      0
     21     21  O        5   1.405465(    20)      4  115.754(    40)      3 -179.998(    59)      0
     22     22  H       21   0.974436(    21)      5  112.627(    41)      4 -179.993(    60)      0
 ---------------------------------------------------------------------------------------------------
                         Z-Matrix orientation:                         
 ---------------------------------------------------------------------
 Center     Atomic      Atomic             Coordinates (Angstroms)
 Number     Number       Type             X           Y           Z
 ---------------------------------------------------------------------
      1          6           0        0.000000    0.000000    0.000000
      2          6           0        0.000000    0.000000    1.401724
      3          6           0        1.241488    0.000000    2.063361
      4          6           0        2.456750   -0.000177    1.366439
      5          6           0        2.407463   -0.000387   -0.038442
      6          6           0        1.193111   -0.000277   -0.743693
      7          1           0        1.267147    0.000235    3.150805
      8          1           0       -0.947242    0.000179   -0.534331
      9          6           0        1.171532   -0.000268   -2.257221
     10          1           0        0.141536   -0.000091   -2.626230
     11          1           0        1.663642   -0.888595   -2.680325
     12          1           0        1.663947    0.887899   -2.680306
     13          6           0       -1.295637   -0.000528    2.186489
     14          1           0       -1.350198    0.640232    2.662356
     15          1           0       -1.377295   -0.888347    2.827079
     16          1           0       -2.163344    0.007384    1.518195
     17          6           0        3.787241   -0.000228    2.078715
     18          1           0        4.383478   -0.879688    1.806822
     19          1           0        3.646388    0.001770    3.164181
     20          1           0        4.385230    0.877024    1.803694
     21          8           0        3.651135   -0.000610   -0.693127
     22          1           0        3.563909   -0.000647   -1.663651
 ---------------------------------------------------------------------
                    Distance matrix (angstroms):
                    1          2          3          4          5
     1  C    0.000000
     2  C    1.401724   0.000000
     3  C    2.408059   1.406789   0.000000
     4  C    2.811188   2.457003   1.400915   0.000000
     5  C    2.407769   2.805344   2.403554   1.405746   0.000000
     6  C    1.405914   2.454858   2.807470   2.459561   1.404289
     7  H    3.396062   2.159849   1.087747   2.144555   3.386978
     8  H    1.087556   2.155359   3.396843   3.898729   3.391158
     9  C    2.543135   3.841922   4.321148   3.844828   2.539784
    10  H    2.630041   4.030439   4.816861   4.615368   3.439632
    11  H    3.277414   4.496713   4.844623   4.218366   2.884740
    12  H    3.277366   4.496671   4.844503   4.218218   2.884668
    13  C    2.541537   1.514771   2.540110   3.840949   4.320100
    14  H    3.053043   1.955026   2.735969   4.072146   4.671693
    15  H    3.267794   2.172036   2.868876   4.197882   4.829501
    16  H    2.642920   2.166490   3.448208   4.622592   4.828608
    17  C    4.320214   3.847273   2.545800   1.509153   2.527082
    18  H    4.822171   4.489191   3.272883   2.163275   2.843028
    19  H    4.827856   4.049988   2.644873   2.155718   3.433910
    20  H    4.822108   4.490100   3.274098   2.163264   2.841633
    21  O    3.716344   4.209416   3.661233   2.380834   1.405465
    22  H    3.933088   4.700848   4.391385   3.226027   1.994661
                    6          7          8          9         10
     6  C    0.000000
     7  H    3.895202   0.000000
     8  H    2.150569   4.299273   0.000000
     9  C    1.513682   5.408872   2.730853   0.000000
    10  H    2.156329   5.885672   2.358279   1.094102   0.000000
    11  H    2.181984   5.911794   3.494557   1.100142   1.763284
    12  H    2.181975   5.911621   3.494506   1.100143   1.763289
    13  C    3.844455   2.738205   2.743035   5.082665   5.022721
    14  H    4.298819   2.738370   3.284942   5.565214   5.532126
    15  H    4.488437   2.808461   3.503355   5.756328   5.730133
    16  H    4.047467   3.799175   2.385753   5.037383   4.742234
    17  C    3.833470   2.738659   5.407711   5.063820   5.952114
    18  H    4.178149   3.506006   5.888271   5.254181   6.198363
    19  H    4.614114   2.379279   5.897494   5.959574   6.768519
    20  H    4.177135   3.507978   5.888164   5.252478   6.196975
    21  O    2.458543   4.523187   4.601118   2.931692   4.006765
    22  H    2.543031   5.334239   4.650360   2.464912   3.555164
                   11         12         13         14         15
    11  H    0.000000
    12  H    1.776494   0.000000
    13  C    5.764709   5.764906   0.000000
    14  H    6.321770   6.139255   0.800000   0.000000
    15  H    6.291168   6.537239   1.097837   1.537668   0.000000
    16  H    5.751188   5.748989   1.095261   1.539743   1.770137
    17  C    5.286523   5.286343   5.084020   5.210000   5.293509
    18  H    5.247101   5.536653   5.759289   5.993090   5.850428
    19  H    6.235566   6.234848   5.037807   5.062147   5.113056
    20  H    5.534517   5.245165   5.760979   5.804180   6.113146
    21  O    2.947473   2.947413   5.723875   6.056672   6.202019
    22  H    2.330899   2.330870   6.199900   6.578260   6.735738
                   16         17         18         19         20
    16  H    0.000000
    17  C    5.976931   0.000000
    18  H    6.612948   1.096757   0.000000
    19  H    6.038401   1.094569   1.778397   0.000000
    20  H    6.612232   1.096722   1.756716   1.778449   0.000000
    21  O    6.220786   2.775182   2.749336   3.857312   2.746498
    22  H    6.551766   3.749024   3.672682   4.828538   3.669790
                   21         22
    21  O    0.000000
    22  H    0.974436   0.000000
 Symmetry turned off by external request.
 Stoichiometry    C9H12O
 Framework group  C1[X(C9H12O)]
 Deg. of freedom    60
 Full point group                 C1      NOp   1
 Rotational constants (GHZ):           1.7330937           1.2459423           0.7340044
 Standard basis: 6-31++G(d,p) (6D, 7F)
   262 basis functions,   416 primitive gaussians,   262 cartesian basis functions
    37 alpha electrons       37 beta electrons
       nuclear repulsion energy       513.4038699425 Hartrees.
 NAtoms=   22 NActive=   22 NUniq=   22 SFac= 1.00D+00 NAtFMM=   60 NAOKFM=F Big=F
 Integral buffers will be    131072 words long.
 Raffenetti 2 integral format.
 Two-electron integral symmetry is turned off.
 One-electron integrals computed using PRISM.
 NBasis=   262 RedAO= T EigKep=  1.34D-06  NBF=   262
 NBsUse=   261 1.00D-06 EigRej=  7.41D-07 NBFU=   261
 Initial guess from the checkpoint file:  "C:\Users\Administrator\Desktop\dataset_dft\C8H6O3\C8H6O3.chk"
 B after Tr=    -0.000527    0.004139    0.002575
         Rot=    1.000000    0.000282   -0.000189    0.000469 Ang=   0.07 deg.
 ExpMin= 3.60D-02 ExpMax= 5.48D+03 ExpMxC= 8.25D+02 IAcc=3 IRadAn=         5 AccDes= 0.00D+00
 Harris functional with IExCor=  402 and IRadAn=       5 diagonalized for initial guess.
 HarFok:  IExCor=  402 AccDes= 0.00D+00 IRadAn=         5 IDoV= 1 UseB2=F ITyADJ=14
 ICtDFT=  3500011 ScaDFX=  1.000000  1.000000  1.000000  1.000000
 FoFCou: FMM=F IPFlag=           0 FMFlag=      100000 FMFlg1=           0
         NFxFlg=           0 DoJE=T BraDBF=F KetDBF=T FulRan=T
         wScrn=  0.000000 ICntrl=       500 IOpCl=  0 I1Cent=   200000004 NGrid=           0
         NMat0=    1 NMatS0=      1 NMatT0=    0 NMatD0=    1 NMtDS0=    0 NMtDT0=    0
 Symmetry not used in FoFCou.
 Requested convergence on RMS density matrix=1.00D-08 within 128 cycles.
 Requested convergence on MAX density matrix=1.00D-06.
 Requested convergence on             energy=1.00D-06.
 No special actions if energy rises.
 SCF Done:  E(RB3LYP) =  -425.355297618     A.U. after   13 cycles
            NFock= 13  Conv=0.31D-08     -V/T= 2.0085
 Variable Step   Value    
 -------- ---- -----------
    13       4    1.700754
 ---------------------------------------------------------------------------------------------------
                            Z-MATRIX (ANGSTROMS AND DEGREES)
   CD    Cent   Atom    N1       Length/X        N2       Alpha/Y        N3        Beta/Z          J
 ---------------------------------------------------------------------------------------------------
      1      1  C 
      2      2  C        1   1.401724(     1)
      3      3  C        2   1.406789(     2)      1  118.055(    22)
      4      4  C        3   1.400915(     3)      2  122.112(    23)      1   -0.009(    42)      0
      5      5  C        4   1.405746(     4)      3  117.824(    24)      2   -0.001(    43)      0
      6      6  C        5   1.404289(     5)      4  122.156(    25)      3    0.007(    44)      0
      7      7  H        3   1.087747(     6)      2  119.407(    26)      1  179.986(    45)      0
      8      8  H        1   1.087556(     7)      2  119.427(    27)      3 -179.989(    46)      0
      9      9  C        6   1.513682(     8)      5  120.963(    28)      4  179.989(    47)      0
     10     10  H        9   1.094102(     9)      6  110.528(    29)      5 -179.995(    48)      0
     11     11  H        9   1.100142(    10)      6  112.220(    30)      5   60.715(    49)      0
     12     12  H        9   1.100143(    11)      6  112.220(    31)      5  -60.706(    50)      0
     13     13  C        2   1.514771(    12)      1  121.203(    32)      6 -179.963(    51)      0
     14     14  H       13   0.900000(    13)      2  111.483(    33)      1 -120.596(    52)      0
     15     15  H       13   1.097837(    14)      2  111.482(    34)      1  119.653(    53)      0
     16     16  H       13   1.095261(    15)      2  111.193(    35)      1   -0.464(    54)      0
     17     17  C        4   1.509153(    16)      3  122.005(    36)      2 -179.998(    55)      0
     18     18  H       17   1.096757(    17)      4  111.242(    37)      3  120.656(    56)      0
     19     19  H       17   1.094569(    18)      4  110.769(    38)      3   -0.105(    57)      0
     20     20  H       17   1.096722(    19)      4  111.243(    39)      3 -120.877(    58)      0
     21     21  O        5   1.405465(    20)      4  115.754(    40)      3 -179.998(    59)      0
     22     22  H       21   0.974436(    21)      5  112.627(    41)      4 -179.993(    60)      0
 ---------------------------------------------------------------------------------------------------
                         Z-Matrix orientation:                         
 ---------------------------------------------------------------------
 Center     Atomic      Atomic             Coordinates (Angstroms)
 Number     Number       Type             X           Y           Z
 ---------------------------------------------------------------------
      1          6           0        0.000000    0.000000    0.000000
      2          6           0        0.000000    0.000000    1.401724
      3          6           0        1.241488    0.000000    2.063361
      4          6           0        2.456750   -0.000177    1.366439
      5          6           0        2.407463   -0.000387   -0.038442
      6          6           0        1.193111   -0.000277   -0.743693
      7          1           0        1.267147    0.000235    3.150805
      8          1           0       -0.947242    0.000179   -0.534331
      9          6           0        1.171532   -0.000268   -2.257221
     10          1           0        0.141536   -0.000091   -2.626230
     11          1           0        1.663642   -0.888595   -2.680325
     12          1           0        1.663947    0.887899   -2.680306
     13          6           0       -1.295637   -0.000528    2.186489
     14          1           0       -1.357018    0.720327    2.721839
     15          1           0       -1.377295   -0.888347    2.827079
     16          1           0       -2.163344    0.007384    1.518195
     17          6           0        3.787241   -0.000228    2.078715
     18          1           0        4.383478   -0.879688    1.806822
     19          1           0        3.646388    0.001770    3.164181
     20          1           0        4.385230    0.877024    1.803694
     21          8           0        3.651135   -0.000610   -0.693127
     22          1           0        3.563909   -0.000647   -1.663651
 ---------------------------------------------------------------------
                    Distance matrix (angstroms):
                    1          2          3          4          5
     1  C    0.000000
     2  C    1.401724   0.000000
     3  C    2.408059   1.406789   0.000000
     4  C    2.811188   2.457003   1.400915   0.000000
     5  C    2.407769   2.805344   2.403554   1.405746   0.000000
     6  C    1.405914   2.454858   2.807470   2.459561   1.404289
     7  H    3.396062   2.159849   1.087747   2.144555   3.386978
     8  H    1.087556   2.155359   3.396843   3.898729   3.391158
     9  C    2.543135   3.841922   4.321148   3.844828   2.539784
    10  H    2.630041   4.030439   4.816861   4.615368   3.439632
    11  H    3.277414   4.496713   4.844623   4.218366   2.884740
    12  H    3.277366   4.496671   4.844503   4.218218   2.884668
    13  C    2.541537   1.514771   2.540110   3.840949   4.320100
    14  H    3.125505   2.025605   2.775734   4.111090   4.723335
    15  H    3.267794   2.172036   2.868876   4.197882   4.829501
    16  H    2.642920   2.166490   3.448208   4.622592   4.828608
    17  C    4.320214   3.847273   2.545800   1.509153   2.527082
    18  H    4.822171   4.489191   3.272883   2.163275   2.843028
    19  H    4.827856   4.049988   2.644873   2.155718   3.433910
    20  H    4.822108   4.490100   3.274098   2.163264   2.841633
    21  O    3.716344   4.209416   3.661233   2.380834   1.405465
    22  H    3.933088   4.700848   4.391385   3.226027   1.994661
                    6          7          8          9         10
     6  C    0.000000
     7  H    3.895202   0.000000
     8  H    2.150569   4.299273   0.000000
     9  C    1.513682   5.408872   2.730853   0.000000
    10  H    2.156329   5.885672   2.358279   1.094102   0.000000
    11  H    2.181984   5.911794   3.494557   1.100142   1.763284
    12  H    2.181975   5.911621   3.494506   1.100143   1.763289
    13  C    3.844455   2.738205   2.743035   5.082665   5.022721
    14  H    4.362607   2.754775   3.359936   5.630619   5.600581
    15  H    4.488437   2.808461   3.503355   5.756328   5.730133
    16  H    4.047467   3.799175   2.385753   5.037383   4.742234
    17  C    3.833470   2.738659   5.407711   5.063820   5.952114
    18  H    4.178149   3.506006   5.888271   5.254181   6.198363
    19  H    4.614114   2.379279   5.897494   5.959574   6.768519
    20  H    4.177135   3.507978   5.888164   5.252478   6.196975
    21  O    2.458543   4.523187   4.601118   2.931692   4.006765
    22  H    2.543031   5.334239   4.650360   2.464912   3.555164
                   11         12         13         14         15
    11  H    0.000000
    12  H    1.776494   0.000000
    13  C    5.764709   5.764906   0.000000
    14  H    6.395029   6.191727   0.900000   0.000000
    15  H    6.291168   6.537239   1.097837   1.612241   0.000000
    16  H    5.751188   5.748989   1.095261   1.614686   1.770137
    17  C    5.286523   5.286343   5.084020   5.234139   5.293509
    18  H    5.247101   5.536653   5.759289   6.029146   5.850428
    19  H    6.235566   6.234848   5.037807   5.074058   5.113056
    20  H    5.534517   5.245165   5.760979   5.817298   6.113146
    21  O    2.947473   2.947413   5.723875   6.104371   6.202019
    22  H    2.330899   2.330870   6.199900   6.630826   6.735738
                   16         17         18         19         20
    16  H    0.000000
    17  C    5.976931   0.000000
    18  H    6.612948   1.096757   0.000000
    19  H    6.038401   1.094569   1.778397   0.000000
    20  H    6.612232   1.096722   1.756716   1.778449   0.000000
    21  O    6.220786   2.775182   2.749336   3.857312   2.746498
    22  H    6.551766   3.749024   3.672682   4.828538   3.669790
                   21         22
    21  O    0.000000
    22  H    0.974436   0.000000
 Symmetry turned off by external request.
 Stoichiometry    C9H12O
 Framework group  C1[X(C9H12O)]
 Deg. of freedom    60
 Full point group                 C1      NOp   1
 Rotational constants (GHZ):           1.7321732           1.2448118           0.7336843
 Standard basis: 6-31++G(d,p) (6D, 7F)
   262 basis functions,   416 primitive gaussians,   262 cartesian basis functions
    37 alpha electrons       37 beta electrons
       nuclear repulsion energy       512.7839594603 Hartrees.
 NAtoms=   22 NActive=   22 NUniq=   22 SFac= 1.00D+00 NAtFMM=   60 NAOKFM=F Big=F
 Integral buffers will be    131072 words long.
 Raffenetti 2 integral format.
 Two-electron integral symmetry is turned off.
 One-electron integrals computed using PRISM.
 NBasis=   262 RedAO= T EigKep=  1.34D-06  NBF=   262
 NBsUse=   261 1.00D-06 EigRej=  7.41D-07 NBFU=   261
 Initial guess from the checkpoint file:  "C:\Users\Administrator\Desktop\dataset_dft\C8H6O3\C8H6O3.chk"
 B after Tr=    -0.000529    0.004136    0.002575
         Rot=    1.000000    0.000282   -0.000189    0.000469 Ang=   0.07 deg.
 ExpMin= 3.60D-02 ExpMax= 5.48D+03 ExpMxC= 8.25D+02 IAcc=3 IRadAn=         5 AccDes= 0.00D+00
 Harris functional with IExCor=  402 and IRadAn=       5 diagonalized for initial guess.
 HarFok:  IExCor=  402 AccDes= 0.00D+00 IRadAn=         5 IDoV= 1 UseB2=F ITyADJ=14
 ICtDFT=  3500011 ScaDFX=  1.000000  1.000000  1.000000  1.000000
 FoFCou: FMM=F IPFlag=           0 FMFlag=      100000 FMFlg1=           0
         NFxFlg=           0 DoJE=T BraDBF=F KetDBF=T FulRan=T
         wScrn=  0.000000 ICntrl=       500 IOpCl=  0 I1Cent=   200000004 NGrid=           0
         NMat0=    1 NMatS0=      1 NMatT0=    0 NMatD0=    1 NMtDS0=    0 NMtDT0=    0
 Symmetry not used in FoFCou.
 Requested convergence on RMS density matrix=1.00D-08 within 128 cycles.
 Requested convergence on MAX density matrix=1.00D-06.
 Requested convergence on             energy=1.00D-06.
 No special actions if energy rises.
 SCF Done:  E(RB3LYP) =  -425.420474203     A.U. after   13 cycles
            NFock= 13  Conv=0.31D-08     -V/T= 2.0093
 Variable Step   Value    
 -------- ---- -----------
    13       5    1.889726
 ---------------------------------------------------------------------------------------------------
                            Z-MATRIX (ANGSTROMS AND DEGREES)
   CD    Cent   Atom    N1       Length/X        N2       Alpha/Y        N3        Beta/Z          J
 ---------------------------------------------------------------------------------------------------
      1      1  C 
      2      2  C        1   1.401724(     1)
      3      3  C        2   1.406789(     2)      1  118.055(    22)
      4      4  C        3   1.400915(     3)      2  122.112(    23)      1   -0.009(    42)      0
      5      5  C        4   1.405746(     4)      3  117.824(    24)      2   -0.001(    43)      0
      6      6  C        5   1.404289(     5)      4  122.156(    25)      3    0.007(    44)      0
      7      7  H        3   1.087747(     6)      2  119.407(    26)      1  179.986(    45)      0
      8      8  H        1   1.087556(     7)      2  119.427(    27)      3 -179.989(    46)      0
      9      9  C        6   1.513682(     8)      5  120.963(    28)      4  179.989(    47)      0
     10     10  H        9   1.094102(     9)      6  110.528(    29)      5 -179.995(    48)      0
     11     11  H        9   1.100142(    10)      6  112.220(    30)      5   60.715(    49)      0
     12     12  H        9   1.100143(    11)      6  112.220(    31)      5  -60.706(    50)      0
     13     13  C        2   1.514771(    12)      1  121.203(    32)      6 -179.963(    51)      0
     14     14  H       13   1.000000(    13)      2  111.483(    33)      1 -120.596(    52)      0
     15     15  H       13   1.097837(    14)      2  111.482(    34)      1  119.653(    53)      0
     16     16  H       13   1.095261(    15)      2  111.193(    35)      1   -0.464(    54)      0
     17     17  C        4   1.509153(    16)      3  122.005(    36)      2 -179.998(    55)      0
     18     18  H       17   1.096757(    17)      4  111.242(    37)      3  120.656(    56)      0
     19     19  H       17   1.094569(    18)      4  110.769(    38)      3   -0.105(    57)      0
     20     20  H       17   1.096722(    19)      4  111.243(    39)      3 -120.877(    58)      0
     21     21  O        5   1.405465(    20)      4  115.754(    40)      3 -179.998(    59)      0
     22     22  H       21   0.974436(    21)      5  112.627(    41)      4 -179.993(    60)      0
 ---------------------------------------------------------------------------------------------------
                         Z-Matrix orientation:                         
 ---------------------------------------------------------------------
 Center     Atomic      Atomic             Coordinates (Angstroms)
 Number     Number       Type             X           Y           Z
 ---------------------------------------------------------------------
      1          6           0        0.000000    0.000000    0.000000
      2          6           0        0.000000    0.000000    1.401724
      3          6           0        1.241488    0.000000    2.063361
      4          6           0        2.456750   -0.000177    1.366439
      5          6           0        2.407463   -0.000387   -0.038442
      6          6           0        1.193111   -0.000277   -0.743693
      7          1           0        1.267147    0.000235    3.150805
      8          1           0       -0.947242    0.000179   -0.534331
      9          6           0        1.171532   -0.000268   -2.257221
     10          1           0        0.141536   -0.000091   -2.626230
     11          1           0        1.663642   -0.888595   -2.680325
     12          1           0        1.663947    0.887899   -2.680306
     13          6           0       -1.295637   -0.000528    2.186489
     14          1           0       -1.363838    0.800422    2.781323
     15          1           0       -1.377295   -0.888347    2.827079
     16          1           0       -2.163344    0.007384    1.518195
     17          6           0        3.787241   -0.000228    2.078715
     18          1           0        4.383478   -0.879688    1.806822
     19          1           0        3.646388    0.001770    3.164181
     20          1           0        4.385230    0.877024    1.803694
     21          8           0        3.651135   -0.000610   -0.693127
     22          1           0        3.563909   -0.000647   -1.663651
 ---------------------------------------------------------------------
                    Distance matrix (angstroms):
                    1          2          3          4          5
     1  C    0.000000
     2  C    1.401724   0.000000
     3  C    2.408059   1.406789   0.000000
     4  C    2.811188   2.457003   1.400915   0.000000
     5  C    2.407769   2.805344   2.403554   1.405746   0.000000
     6  C    1.405914   2.454858   2.807470   2.459561   1.404289
     7  H    3.396062   2.159849   1.087747   2.144555   3.386978
     8  H    1.087556   2.155359   3.396843   3.898729   3.391158
     9  C    2.543135   3.841922   4.321148   3.844828   2.539784
    10  H    2.630041   4.030439   4.816861   4.615368   3.439632
[...]
     20          1           0        4.385230    0.877024    1.803694
     21          8           0        3.651135   -0.000610   -0.693127
     22          1           0        3.563909   -0.000647   -1.663651
 ---------------------------------------------------------------------
                    Distance matrix (angstroms):
                    1          2          3          4          5
     1  C    0.000000
     2  C    1.401724   0.000000
     3  C    2.408059   1.406789   0.000000
     4  C    2.811188   2.457003   1.400915   0.000000
     5  C    2.407769   2.805344   2.403554   1.405746   0.000000
     6  C    1.405914   2.454858   2.807470   2.459561   1.404289
     7  H    3.396062   2.159849   1.087747   2.144555   3.386978
     8  H    1.087556   2.155359   3.396843   3.898729   3.391158
     9  C    2.543135   3.841922   4.321148   3.844828   2.539784
    10  H    2.630041   4.030439   4.816861   4.615368   3.439632
    11  H    3.277414   4.496713   4.844623   4.218366   2.884740
    12  H    3.277366   4.496671   4.844503   4.218218   2.884668
    13  C    2.541537   1.514771   2.540110   3.840949   4.320100
    14  H    4.345618   3.273731   3.659543   4.907275   5.655760
    15  H    3.267794   2.172036   2.868876   4.197882   4.829501
    16  H    2.642920   2.166490   3.448208   4.622592   4.828608
    17  C    4.320214   3.847273   2.545800   1.509153   2.527082
    18  H    4.822171   4.489191   3.272883   2.163275   2.843028
    19  H    4.827856   4.049988   2.644873   2.155718   3.433910
    20  H    4.822108   4.490100   3.274098   2.163264   2.841633
    21  O    3.716344   4.209416   3.661233   2.380834   1.405465
    22  H    3.933088   4.700848   4.391385   3.226027   1.994661
                    6          7          8          9         10
     6  C    0.000000
     7  H    3.895202   0.000000
     8  H    2.150569   4.299273   0.000000
     9  C    1.513682   5.408872   2.730853   0.000000
    10  H    2.156329   5.885672   2.358279   1.094102   0.000000
    11  H    2.181984   5.911794   3.494557   1.100142   1.763284
    12  H    2.181975   5.911621   3.494506   1.100143   1.763289
    13  C    3.844455   2.738205   2.743035   5.082665   5.022721
    14  H    5.451592   3.367564   4.600441   6.714748   6.722931
    15  H    4.488437   2.808461   3.503355   5.756328   5.730133
    16  H    4.047467   3.799175   2.385753   5.037383   4.742234
    17  C    3.833470   2.738659   5.407711   5.063820   5.952114
    18  H    4.178149   3.506006   5.888271   5.254181   6.198363
    19  H    4.614114   2.379279   5.897494   5.959574   6.768519
    20  H    4.177135   3.507978   5.888164   5.252478   6.196975
    21  O    2.458543   4.523187   4.601118   2.931692   4.006765
    22  H    2.543031   5.334239   4.650360   2.464912   3.555164
                   11         12         13         14         15
    11  H    0.000000
    12  H    1.776494   0.000000
    13  C    5.764709   5.764906   0.000000
    14  H    7.567734   7.102328   2.400000   0.000000
    15  H    6.291168   6.537239   1.097837   2.919380   0.000000
    16  H    5.751188   5.748989   1.095261   2.924591   1.770137
    17  C    5.286523   5.286343   5.084020   5.794635   5.293509
    18  H    5.247101   5.536653   5.759289   6.727004   5.850428
    19  H    6.235566   6.234848   5.037807   5.473300   5.113056
    20  H    5.534517   5.245165   5.760979   6.207074   6.113146
    21  O    2.947473   2.947413   5.723875   6.954448   6.202019
    22  H    2.330899   2.330870   6.199900   7.535450   6.735738
                   16         17         18         19         20
    16  H    0.000000
    17  C    5.976931   0.000000
    18  H    6.612948   1.096757   0.000000
    19  H    6.038401   1.094569   1.778397   0.000000
    20  H    6.612232   1.096722   1.756716   1.778449   0.000000
    21  O    6.220786   2.775182   2.749336   3.857312   2.746498
    22  H    6.551766   3.749024   3.672682   4.828538   3.669790
                   21         22
    21  O    0.000000
    22  H    0.974436   0.000000
 Symmetry turned off by external request.
 Stoichiometry    C9H12O
 Framework group  C1[X(C9H12O)]
 Deg. of freedom    60
 Full point group                 C1      NOp   1
 Rotational constants (GHZ):           1.7073266           1.2223564           0.7279201
 Standard basis: 6-31++G(d,p) (6D, 7F)
   262 basis functions,   416 primitive gaussians,   262 cartesian basis functions
    37 alpha electrons       37 beta electrons
       nuclear repulsion energy       508.3612497298 Hartrees.
 NAtoms=   22 NActive=   22 NUniq=   22 SFac= 1.00D+00 NAtFMM=   60 NAOKFM=F Big=F
 Integral buffers will be    131072 words long.
 Raffenetti 2 integral format.
 Two-electron integral symmetry is turned off.
 One-electron integrals computed using PRISM.
 NBasis=   262 RedAO= T EigKep=  1.41D-06  NBF=   262
 NBsUse=   261 1.00D-06 EigRej=  7.59D-07 NBFU=   261
 Initial guess from the checkpoint file:  "C:\Users\Administrator\Desktop\dataset_dft\C8H6O3\C8H6O3.chk"
 B after Tr=    -0.000557    0.004071    0.002564
         Rot=    1.000000    0.000269   -0.000184    0.000456 Ang=   0.06 deg.
 ExpMin= 3.60D-02 ExpMax= 5.48D+03 ExpMxC= 8.25D+02 IAcc=3 IRadAn=         5 AccDes= 0.00D+00
 Harris functional with IExCor=  402 and IRadAn=       5 diagonalized for initial guess.
 HarFok:  IExCor=  402 AccDes= 0.00D+00 IRadAn=         5 IDoV= 1 UseB2=F ITyADJ=14
 ICtDFT=  3500011 ScaDFX=  1.000000  1.000000  1.000000  1.000000
 FoFCou: FMM=F IPFlag=           0 FMFlag=      100000 FMFlg1=           0
         NFxFlg=           0 DoJE=T BraDBF=F KetDBF=T FulRan=T
         wScrn=  0.000000 ICntrl=       500 IOpCl=  0 I1Cent=   200000004 NGrid=           0
         NMat0=    1 NMatS0=      1 NMatT0=    0 NMatD0=    1 NMtDS0=    0 NMtDT0=    0
 Symmetry not used in FoFCou.
 Requested convergence on RMS density matrix=1.00D-08 within 128 cycles.
 Requested convergence on MAX density matrix=1.00D-06.
 Requested convergence on             energy=1.00D-06.
 No special actions if energy rises.
 SCF Done:  E(RB3LYP) =  -425.293014396     A.U. after   13 cycles
            NFock= 13  Conv=0.24D-08     -V/T= 2.0108
 Variable Step   Value    
 -------- ---- -----------
    13      20    4.724315
 ---------------------------------------------------------------------------------------------------
                            Z-MATRIX (ANGSTROMS AND DEGREES)
   CD    Cent   Atom    N1       Length/X        N2       Alpha/Y        N3        Beta/Z          J
 ---------------------------------------------------------------------------------------------------
      1      1  C 
      2      2  C        1   1.401724(     1)
      3      3  C        2   1.406789(     2)      1  118.055(    22)
      4      4  C        3   1.400915(     3)      2  122.112(    23)      1   -0.009(    42)      0
      5      5  C        4   1.405746(     4)      3  117.824(    24)      2   -0.001(    43)      0
      6      6  C        5   1.404289(     5)      4  122.156(    25)      3    0.007(    44)      0
      7      7  H        3   1.087747(     6)      2  119.407(    26)      1  179.986(    45)      0
      8      8  H        1   1.087556(     7)      2  119.427(    27)      3 -179.989(    46)      0
      9      9  C        6   1.513682(     8)      5  120.963(    28)      4  179.989(    47)      0
     10     10  H        9   1.094102(     9)      6  110.528(    29)      5 -179.995(    48)      0
     11     11  H        9   1.100142(    10)      6  112.220(    30)      5   60.715(    49)      0
     12     12  H        9   1.100143(    11)      6  112.220(    31)      5  -60.706(    50)      0
     13     13  C        2   1.514771(    12)      1  121.203(    32)      6 -179.963(    51)      0
     14     14  H       13   2.500000(    13)      2  111.483(    33)      1 -120.596(    52)      0
     15     15  H       13   1.097837(    14)      2  111.482(    34)      1  119.653(    53)      0
     16     16  H       13   1.095261(    15)      2  111.193(    35)      1   -0.464(    54)      0
     17     17  C        4   1.509153(    16)      3  122.005(    36)      2 -179.998(    55)      0
     18     18  H       17   1.096757(    17)      4  111.242(    37)      3  120.656(    56)      0
     19     19  H       17   1.094569(    18)      4  110.769(    38)      3   -0.105(    57)      0
     20     20  H       17   1.096722(    19)      4  111.243(    39)      3 -120.877(    58)      0
     21     21  O        5   1.405465(    20)      4  115.754(    40)      3 -179.998(    59)      0
     22     22  H       21   0.974436(    21)      5  112.627(    41)      4 -179.993(    60)      0
 ---------------------------------------------------------------------------------------------------
                         Z-Matrix orientation:                         
 ---------------------------------------------------------------------
 Center     Atomic      Atomic             Coordinates (Angstroms)
 Number     Number       Type             X           Y           Z
 ---------------------------------------------------------------------
      1          6           0        0.000000    0.000000    0.000000
      2          6           0        0.000000    0.000000    1.401724
      3          6           0        1.241488    0.000000    2.063361
      4          6           0        2.456750   -0.000177    1.366439
      5          6           0        2.407463   -0.000387   -0.038442
      6          6           0        1.193111   -0.000277   -0.743693
      7          1           0        1.267147    0.000235    3.150805
      8          1           0       -0.947242    0.000179   -0.534331
      9          6           0        1.171532   -0.000268   -2.257221
     10          1           0        0.141536   -0.000091   -2.626230
     11          1           0        1.663642   -0.888595   -2.680325
     12          1           0        1.663947    0.887899   -2.680306
     13          6           0       -1.295637   -0.000528    2.186489
     14          1           0       -1.466140    2.001848    3.673573
     15          1           0       -1.377295   -0.888347    2.827079
     16          1           0       -2.163344    0.007384    1.518195
     17          6           0        3.787241   -0.000228    2.078715
     18          1           0        4.383478   -0.879688    1.806822
     19          1           0        3.646388    0.001770    3.164181
     20          1           0        4.385230    0.877024    1.803694
     21          8           0        3.651135   -0.000610   -0.693127
     22          1           0        3.563909   -0.000647   -1.663651
 ---------------------------------------------------------------------
                    Distance matrix (angstroms):
                    1          2          3          4          5
     1  C    0.000000
     2  C    1.401724   0.000000
     3  C    2.408059   1.406789   0.000000
     4  C    2.811188   2.457003   1.400915   0.000000
     5  C    2.407769   2.805344   2.403554   1.405746   0.000000
     6  C    1.405914   2.454858   2.807470   2.459561   1.404289
     7  H    3.396062   2.159849   1.087747   2.144555   3.386978
     8  H    1.087556   2.155359   3.396843   3.898729   3.391158
     9  C    2.543135   3.841922   4.321148   3.844828   2.539784
    10  H    2.630041   4.030439   4.816861   4.615368   3.439632
    11  H    3.277414   4.496713   4.844623   4.218366   2.884740
    12  H    3.277366   4.496671   4.844503   4.218218   2.884668
    13  C    2.541537   1.514771   2.540110   3.840949   4.320100
    14  H    4.433069   3.364263   3.732483   4.971925   5.726500
    15  H    3.267794   2.172036   2.868876   4.197882   4.829501
    16  H    2.642920   2.166490   3.448208   4.622592   4.828608
    17  C    4.320214   3.847273   2.545800   1.509153   2.527082
    18  H    4.822171   4.489191   3.272883   2.163275   2.843028
    19  H    4.827856   4.049988   2.644873   2.155718   3.433910
    20  H    4.822108   4.490100   3.274098   2.163264   2.841633
    21  O    3.716344   4.209416   3.661233   2.380834   1.405465
    22  H    3.933088   4.700848   4.391385   3.226027   1.994661
                    6          7          8          9         10
     6  C    0.000000
     7  H    3.895202   0.000000
     8  H    2.150569   4.299273   0.000000
     9  C    1.513682   5.408872   2.730853   0.000000
    10  H    2.156329   5.885672   2.358279   1.094102   0.000000
    11  H    2.181984   5.911794   3.494557   1.100142   1.763284
    12  H    2.181975   5.911621   3.494506   1.100143   1.763289
    13  C    3.844455   2.738205   2.743035   5.082665   5.022721
    14  H    5.531036   3.427915   4.688538   6.792651   6.802933
    15  H    4.488437   2.808461   3.503355   5.756328   5.730133
    16  H    4.047467   3.799175   2.385753   5.037383   4.742234
    17  C    3.833470   2.738659   5.407711   5.063820   5.952114
    18  H    4.178149   3.506006   5.888271   5.254181   6.198363
    19  H    4.614114   2.379279   5.897494   5.959574   6.768519
    20  H    4.177135   3.507978   5.888164   5.252478   6.196975
    21  O    2.458543   4.523187   4.601118   2.931692   4.006765
    22  H    2.543031   5.334239   4.650360   2.464912   3.555164
                   11         12         13         14         15
    11  H    0.000000
    12  H    1.776494   0.000000
    13  C    5.764709   5.764906   0.000000
    14  H    7.649981   7.170084   2.500000   0.000000
    15  H    6.291168   6.537239   1.097837   3.012918   0.000000
    16  H    5.751188   5.748989   1.095261   3.018217   1.770137
    17  C    5.286523   5.286343   5.084020   5.843791   5.293509
    18  H    5.247101   5.536653   5.759289   6.782776   5.850428
    19  H    6.235566   6.234848   5.037807   5.513415   5.113056
    20  H    5.534517   5.245165   5.760979   6.245015   6.113146
    21  O    2.947473   2.947413   5.723875   7.018861   6.202019
    22  H    2.330899   2.330870   6.199900   7.602456   6.735738
                   16         17         18         19         20
    16  H    0.000000
    17  C    5.976931   0.000000
    18  H    6.612948   1.096757   0.000000
    19  H    6.038401   1.094569   1.778397   0.000000
    20  H    6.612232   1.096722   1.756716   1.778449   0.000000
    21  O    6.220786   2.775182   2.749336   3.857312   2.746498
    22  H    6.551766   3.749024   3.672682   4.828538   3.669790
                   21         22
    21  O    0.000000
    22  H    0.974436   0.000000
 Symmetry turned off by external request.
 Stoichiometry    C9H12O
 Framework group  C1[X(C9H12O)]
 Deg. of freedom    60
 Full point group                 C1      NOp   1
 Rotational constants (GHZ):           1.7049763           1.2205059           0.7274704
 Standard basis: 6-31++G(d,p) (6D, 7F)
   262 basis functions,   416 primitive gaussians,   262 cartesian basis functions
    37 alpha electrons       37 beta electrons
       nuclear repulsion energy       508.1904966121 Hartrees.
 NAtoms=   22 NActive=   22 NUniq=   22 SFac= 1.00D+00 NAtFMM=   60 NAOKFM=F Big=F
 Integral buffers will be    131072 words long.
 Raffenetti 2 integral format.
 Two-electron integral symmetry is turned off.
 One-electron integrals computed using PRISM.
 NBasis=   262 RedAO= T EigKep=  1.41D-06  NBF=   262
 NBsUse=   261 1.00D-06 EigRej=  7.61D-07 NBFU=   261
 Initial guess from the checkpoint file:  "C:\Users\Administrator\Desktop\dataset_dft\C8H6O3\C8H6O3.chk"
 B after Tr=    -0.000558    0.004066    0.002563
         Rot=    1.000000    0.000268   -0.000184    0.000455 Ang=   0.06 deg.
 ExpMin= 3.60D-02 ExpMax= 5.48D+03 ExpMxC= 8.25D+02 IAcc=3 IRadAn=         5 AccDes= 0.00D+00
 Harris functional with IExCor=  402 and IRadAn=       5 diagonalized for initial guess.
 HarFok:  IExCor=  402 AccDes= 0.00D+00 IRadAn=         5 IDoV= 1 UseB2=F ITyADJ=14
 ICtDFT=  3500011 ScaDFX=  1.000000  1.000000  1.000000  1.000000
 FoFCou: FMM=F IPFlag=           0 FMFlag=      100000 FMFlg1=           0
         NFxFlg=           0 DoJE=T BraDBF=F KetDBF=T FulRan=T
         wScrn=  0.000000 ICntrl=       500 IOpCl=  0 I1Cent=   200000004 NGrid=           0
         NMat0=    1 NMatS0=      1 NMatT0=    0 NMatD0=    1 NMtDS0=    0 NMtDT0=    0
 Symmetry not used in FoFCou.
 Requested convergence on RMS density matrix=1.00D-08 within 128 cycles.
 Requested convergence on MAX density matrix=1.00D-06.
 Requested convergence on             energy=1.00D-06.
 No special actions if energy rises.
 SCF Done:  E(RB3LYP) =  -425.285322743     A.U. after   13 cycles
            NFock= 13  Conv=0.26D-08     -V/T= 2.0108
 Scan completed.
 
 Summary of the potential surface scan:
   N      B13         SCF    
 ----  ---------  -----------
    1     0.5000   -424.52160
    2     0.6000   -424.97928
    3     0.7000   -425.22512
    4     0.8000   -425.35530
    5     0.9000   -425.42047
    6     1.0000   -425.44848
    7     1.1000   -425.45521
    8     1.2000   -425.44998
    9     1.3000   -425.43828
   10     1.4000   -425.42334
   11     1.5000   -425.40710
   12     1.6000   -425.39070
   13     1.7000   -425.37482
   14     1.8000   -425.35984
   15     1.9000   -425.34594
   16     2.0000   -425.33319
   17     2.1000   -425.32158
   18     2.2000   -425.31106
   19     2.3000   -425.30157
   20     2.4000   -425.29301
   21     2.5000   -425.28532
 ----  ---------  -----------
  
 1|1|UNPC-BF-202112021916|Scan|RB3LYP|6-31++G(d,p)|C9H12O1|ADMINISTRATO
 R|21-Mar-2023|1||# scan b3lyp/6-31++g(d,p) nosymm||Title Card Required
 ||0,1|C|C,1,B1|C,2,B2,1,A1|C,3,B3,2,A2,1,D1,0|C,4,B4,3,A3,2,D2,0|C,5,B
 5,4,A4,3,D3,0|H,3,B6,2,A5,1,D4,0|H,1,B7,2,A6,3,D5,0|C,6,B8,5,A7,4,D6,0
 |H,9,B9,6,A8,5,D7,0|H,9,B10,6,A9,5,D8,0|H,9,B11,6,A10,5,D9,0|C,2,B12,1
 ,A11,6,D10,0|H,13,B13,2,A12,1,D11,0|H,13,B14,2,A13,1,D12,0|H,13,B15,2,
 A14,1,D13,0|C,4,B16,3,A15,2,D14,0|H,17,B17,4,A16,3,D15,0|H,17,B18,4,A1
 7,3,D16,0|H,17,B19,4,A18,3,D17,0|O,5,B20,4,A19,3,D18,0|H,21,B21,5,A20,
 4,D19,0||B1=1.40172372|B2=1.4067889|B3=1.40091456|B4=1.40574604|B5=1.4
 0428866|B6=1.0877472|B7=1.0875556|B8=1.51368221|B9=1.09410205|B10=1.10
 014242|B11=1.10014305|B12=1.5147712|B13=0.5,s,20,0.1|B14=1.09783685|B1
 5=1.09526065|B16=1.50915325|B17=1.09675659|B18=1.09456869|B19=1.096721
 5|B20=1.40546547|B21=0.97443585|A1=118.05489243|A2=122.11195318|A3=117
 .82388104|A4=122.15571465|A5=119.40658646|A6=119.42693933|A7=120.96328
 413|A8=110.52751361|A9=112.22032978|A10=112.2195867|A11=121.2032423|A1
 2=111.48295131|A13=111.48150097|A14=111.19313304|A15=122.00457753|A16=
 111.2415396|A17=110.7686959|A18=111.24276989|A19=115.75361474|A20=112.
 62722068|D1=-0.00852575|D2=-0.00133353|D3=0.00703282|D4=179.98577911|D
 5=-179.9891797|D6=179.98938788|D7=-179.99524881|D8=60.71536748|D9=-60.
 70593948|D10=-179.96336306|D11=-120.59576262|D12=119.65332994|D13=-0.4
 6377751|D14=-179.99769154|D15=120.65588323|D16=-0.10528748|D17=-120.87
 650648|D18=-179.99764726|D19=-179.99345926||Version=EM64W-G16RevA.03|H
 F=-424.5215975,-424.9792837,-425.2251206,-425.3552976,-425.4204742,-42
 5.4484769,-425.4552096,-425.4499813,-425.4382777,-425.4233409,-425.407
 0979,-425.3906981,-425.3748179,-425.3598357,-425.3459376,-425.3331883,
 -425.3215796,-425.3110624,-425.3015671,-425.2930144,-425.2853227|RMSD=
 9.696e-009,2.278e-009,2.921e-009,3.069e-009,3.054e-009,2.891e-009,9.96
 3e-009,9.377e-009,8.850e-009,8.439e-009,8.227e-009,8.132e-009,7.715e-0
 09,6.829e-009,5.299e-009,4.427e-009,6.604e-009,8.270e-009,2.002e-009,2
 .425e-009,2.621e-009|PG=C01 [X(C9H12O1)]||@


 Everywhere is walking distance if you have the time.
                                    -- Steven Wright
 Job cpu time:       0 days  0 hours 34 minutes 33.0 seconds.
 Elapsed time:       0 days  0 hours 34 minutes 11.1 seconds.
 File lengths (MBytes):  RWF=     47 Int=      0 D2E=      0 Chk=      7 Scr=      1
 Normal termination of Gaussian 16 at Tue Mar 21 21:58:45 2023.
