 Entering Link 1 = I:\G16W\l1.exe PID=     20168.
  
 Copyright (c) 1988,1990,1992,1993,1995,1998,2003,2009,2016,
            Gaussian, Inc.  All Rights Reserved.
  
 This is part of the Gaussian(R) 16 program.  It is based on
 the Gaussian(R) 09 system (copyright 2009, Gaussian, Inc.),
 the Gaussian(R) 03 system (copyright 2003, Gaussian, Inc.),
 the Gaussian(R) 98 system (copyright 1998, Gaussian, Inc.),
 the Gaussian(R) 94 system (copyright 1995, Gaussian, Inc.),
 the Gaussian 92(TM) system (copyright 1992, Gaussian, Inc.),
 the Gaussian 90(TM) system (copyright 1990, Gaussian, Inc.),
 the Gaussian 88(TM) system (copyright 1988, Gaussian, Inc.),
 the Gaussian 86(TM) system (copyright 1986, Carnegie Mellon
 University), and the Gaussian 82(TM) system (copyright 1983,
 Carnegie Mellon University). Gaussian is a federally registered
 trademark of Gaussian, Inc.
  
 This software contains proprietary and confidential information,
 including trade secrets, belonging to Gaussian, Inc.
  
 This software is provided under written license and may be
 used, copied, transmitted, or stored only in accord with that
 written license.
  
 The following legend is applicable only to US Government
 contracts under FAR:
  
                    RESTRICTED RIGHTS LEGEND
  
 Use, reproduction and disclosure by the US Government is
 subject to restrictions as set forth in subparagraphs (a)
 and (c) of the Commercial Computer Software - Restricted
 Rights clause in FAR 52.227-19.
  
 Gaussian, Inc.
 340 Quinnipiac St., Bldg. 40, Wallingford CT 06492
  
  
 ---------------------------------------------------------------
 Warning -- This program may not be used in any manner that
 competes with the business of Gaussian, Inc. or will provide
 assistance to any competitor of Gaussian, Inc.  The licensee
 of this program is prohibited from giving any competitor of
 Gaussian, Inc. access to this program.  By using this program,
 the user acknowledges that Gaussian, Inc. is engaged in the
 business of creating and licensing software in the field of
 computational chemistry and represents and warrants to the
 licensee that it is not a competitor of Gaussian, Inc. and that
 it will not use this program in any manner prohibited above.
 ---------------------------------------------------------------
  

 Cite this work as:
 Gaussian 16, Revision A.03,
 M. J. Frisch, G. W. Trucks, H. B. Schlegel, G. E. Scuseria, 
 M. A. Robb, J. R. Cheeseman, G. Scalmani, V. Barone, 
 G. A. Petersson, H. Nakatsuji, X. Li, M. Caricato, A. V. Marenich, 
 J. Bloino, B. G. Janesko, R. Gomperts, B. Mennucci, H. P. Hratchian, 
 J. V. Ortiz, A. F. Izmaylov, J. L. Sonnenberg, D. Williams-Young, 
 F. Ding, F. Lipparini, F. Egidi, J. Goings, B. Peng, A. Petrone, 
 T. Henderson, D. Ranasinghe, V. G. Zakrzewski, J. Gao, N. Rega, 
 G. Zheng, W. Liang, M. Hada, M. Ehara, K. Toyota, R. Fukuda, 
 J. Hasegawa, M. Ishida, T. Nakajima, Y. Honda, O. Kitao, H. Nakai, 
 T. Vreven, K. Throssell, J. A. Montgomery, Jr., J. E. Peralta, 
 F. Ogliaro, M. J. Bearpark, J. J. Heyd, E. N. Brothers, K. N. Kudin, 
 V. N. Staroverov, T. A. Keith, R. Kobayashi, J. Normand, 
 K. Raghavachari, A. P. Rendell, J. C. Burant, S. S. Iyengar, 
 J. Tomasi, M. Cossi, J. M. Millam, M. Klene, C. Adamo, R. Cammi, 
 J. W. Ochterski, R. L. Martin, K. Morokuma, O. Farkas, 
 J. B. Foresman, and D. J. Fox, Gaussian, Inc., Wallingford CT, 2016.
 
 ******************************************
 Gaussian 16:  EM64W-G16RevA.03 17-Dec-2016
                21-Mar-2023 
 ******************************************
 %nprocshared=16
 Will use up to   16 processors via shared memory.
 %mem=150MW
 %chk=C:\Users\Administrator\Desktop\dataset_dft\C8H6O3\C8H6O3.chk
 --------------------------------
 # scan b3lyp/6-31++g(d,p) nosymm
 --------------------------------
 1/38=1,60=1,172=1/1,8;
 2/12=2,15=1,17=6,18=5,29=3,40=1/2;
 3/5=1,6=6,7=1111,11=2,25=1,30=1,74=-5/1,2,3;
 4//1;
 5/5=2,38=5/2;
 6/7=2,8=2,9=2,10=2,18=1,28=1/1;
 1/60=1/8(1);
 99/9=1/99;
 2/15=1,29=3/2;
 3/5=1,6=6,7=1111,11=2,25=1,30=1,74=-5/1,2,3;
 4/5=5,16=3,69=1/1;
 5/5=2,38=5/2;
 1/60=1/8(-4);
 99/9=1/99;
 -------------------
 Title Card Required
 -------------------
 Symbolic Z-matrix:
 Charge =  0 Multiplicity = 1
 C(PDBName=C,ResName=MOL,ResNum=1)
 C(PDBName=C,ResName=MOL,ResNum=1) 1    B1
 C(PDBName=C,ResName=MOL,ResNum=1) 2    B2       1    A1
 C(PDBName=C,ResName=MOL,ResNum=1) 3    B3       2    A2       1    D1       0
 C(PDBName=C,ResName=MOL,ResNum=1) 4    B4       3    A3       2    D2       0
 C(PDBName=C,ResName=MOL,ResNum=1) 5    B5       4    A4       3    D3       0
 H(PDBName=H,ResName=MOL,ResNum=1) 3    B6       2    A5       1    D4       0
 H(PDBName=H,ResName=MOL,ResNum=1) 1    B7       2    A6       3    D5       0
 C(PDBName=C,ResName=MOL,ResNum=1) 6    B8       5    A7       4    D6       0
 H(PDBName=H,ResName=MOL,ResNum=1) 9    B9       6    A8       5    D7       0
 H(PDBName=H,ResName=MOL,ResNum=1) 9    B10      6    A9       5    D8       0
 H(PDBName=H,ResName=MOL,ResNum=1) 9    B11      6    A10      5    D9       0
 C(PDBName=C,ResName=MOL,ResNum=1) 2    B12      1    A11      6    D10      0
 H(PDBName=H,ResName=MOL,ResNum=1) 13   B13      2    A12      1    D11      0
 H(PDBName=H,ResName=MOL,ResNum=1) 13   B14      2    A13      1    D12      0
 H(PDBName=H,ResName=MOL,ResNum=1) 13   B15      2    A14      1    D13      0
 C(PDBName=C,ResName=MOL,ResNum=1) 4    B16      3    A15      2    D14      0
 H(PDBName=H,ResName=MOL,ResNum=1) 17   B17      4    A16      3    D15      0
 H(PDBName=H,ResName=MOL,ResNum=1) 17   B18      4    A17      3    D16      0
 H(PDBName=H,ResName=MOL,ResNum=1) 17   B19      4    A18      3    D17      0
 O(PDBName=O,ResName=MOL,ResNum=1) 5    B20      4    A19      3    D18      0
 H(PDBName=H,ResName=MOL,ResNum=1) 21   B21      5    A20      4    D19      0
       Variables:
  B1                    1.40172                  
  B2                    1.40679                  
  B3                    1.40091                  
  B4                    1.40575                  
  B5                    1.40429                  
  B6                    1.08775                  
  B7                    1.08756                  
  B8                    1.51368                  
  B9                    1.0941                   
  B10                   1.10014                  
  B11                   1.10014                  
  B12                   1.51477                  
  B13                   1.09777                  
  B14                   1.09784                  
  B15                   1.09526                  
  B16                   1.50915                  
  B17                   1.09676                  
  B18                   1.09457                  
  B19                   1.09672                  
  B20                   1.     Scan 20    0.1    
  B21                   0.97444                  
  A1                  118.05489                  
  A2                  122.11195                  
  A3                  117.82388                  
  A4                  122.15571                  
  A5                  119.40659                  
  A6                  119.42694                  
  A7                  120.96328                  
  A8                  110.52751                  
  A9                  112.22033                  
  A10                 112.21959                  
  A11                 121.20324                  
  A12                 111.48295                  
  A13                 111.4815                   
  A14                 111.19313                  
  A15                 122.00458                  
  A16                 111.24154                  
  A17                 110.7687                   
  A18                 111.24277                  
  A19                 115.75361                  
  A20                 112.62722                  
  D1                   -0.00853                  
  D2                   -0.00133                  
  D3                    0.00703                  
  D4                  179.98578                  
  D5                 -179.98918                  
  D6                  179.98939                  
  D7                 -179.99525                  
  D8                   60.71537                  
  D9                  -60.70594                  
  D10                -179.96336                  
  D11                -120.59576                  
  D12                 119.65333                  
  D13                  -0.46378                  
  D14                -179.99769                  
  D15                 120.65588                  
  D16                  -0.10529                  
  D17                -120.87651                  
  D18                -179.99765                  
  D19                -179.99346                  
 
 Center=      1.30692697     -0.00029497      0.57579106
 Residue   1 PDB Number     1_0 MOL charge    0.00000000 layers R        AvRTP=      0.00000000    180.00000000     90.00000000
 Scan the potential surface.
 Variable   Value     No. Steps Step-Size
 -------- ----------- --------- ---------
    20       1.000000      20      0.1000
 A total of     21 points will be computed.
 ---------------------------------------------------------------------------------------------------
                            Z-MATRIX (ANGSTROMS AND DEGREES)
   CD    Cent   Atom    N1       Length/X        N2       Alpha/Y        N3        Beta/Z          J
 ---------------------------------------------------------------------------------------------------
      1      1  C 
      2      2  C        1   1.401724(     1)
      3      3  C        2   1.406789(     2)      1  118.055(    22)
      4      4  C        3   1.400915(     3)      2  122.112(    23)      1   -0.009(    42)      0
      5      5  C        4   1.405746(     4)      3  117.824(    24)      2   -0.001(    43)      0
      6      6  C        5   1.404289(     5)      4  122.156(    25)      3    0.007(    44)      0
      7      7  H        3   1.087747(     6)      2  119.407(    26)      1  179.986(    45)      0
      8      8  H        1   1.087556(     7)      2  119.427(    27)      3 -179.989(    46)      0
      9      9  C        6   1.513682(     8)      5  120.963(    28)      4  179.989(    47)      0
     10     10  H        9   1.094102(     9)      6  110.528(    29)      5 -179.995(    48)      0
     11     11  H        9   1.100142(    10)      6  112.220(    30)      5   60.715(    49)      0
     12     12  H        9   1.100143(    11)      6  112.220(    31)      5  -60.706(    50)      0
     13     13  C        2   1.514771(    12)      1  121.203(    32)      6 -179.963(    51)      0
     14     14  H       13   1.097772(    13)      2  111.483(    33)      1 -120.596(    52)      0
     15     15  H       13   1.097837(    14)      2  111.482(    34)      1  119.653(    53)      0
     16     16  H       13   1.095261(    15)      2  111.193(    35)      1   -0.464(    54)      0
     17     17  C        4   1.509153(    16)      3  122.005(    36)      2 -179.998(    55)      0
     18     18  H       17   1.096757(    17)      4  111.242(    37)      3  120.656(    56)      0
     19     19  H       17   1.094569(    18)      4  110.769(    38)      3   -0.105(    57)      0
     20     20  H       17   1.096722(    19)      4  111.243(    39)      3 -120.877(    58)      0
     21     21  O        5   1.000000(    20)      4  115.754(    40)      3 -179.998(    59)      0
     22     22  H       21   0.974436(    21)      5  112.627(    41)      4 -179.993(    60)      0
 ---------------------------------------------------------------------------------------------------
                         Z-Matrix orientation:                         
 ---------------------------------------------------------------------
 Center     Atomic      Atomic             Coordinates (Angstroms)
 Number     Number       Type             X           Y           Z
 ---------------------------------------------------------------------
      1          6           0        0.000000    0.000000    0.000000
      2          6           0        0.000000    0.000000    1.401724
      3          6           0        1.241488    0.000000    2.063361
      4          6           0        2.456750   -0.000177    1.366439
      5          6           0        2.407463   -0.000387   -0.038442
      6          6           0        1.193111   -0.000277   -0.743693
      7          1           0        1.267147    0.000235    3.150805
      8          1           0       -0.947242    0.000179   -0.534331
      9          6           0        1.171532   -0.000268   -2.257221
     10          1           0        0.141536   -0.000091   -2.626230
     11          1           0        1.663642   -0.888595   -2.680325
     12          1           0        1.663947    0.887899   -2.680306
     13          6           0       -1.295637   -0.000528    2.186489
     14          1           0       -1.370506    0.878733    2.839481
     15          1           0       -1.377295   -0.888347    2.827079
     16          1           0       -2.163344    0.007384    1.518195
     17          6           0        3.787241   -0.000228    2.078715
     18          1           0        4.383478   -0.879688    1.806822
     19          1           0        3.646388    0.001770    3.164181
     20          1           0        4.385230    0.877024    1.803694
     21          8           0        3.292345   -0.000546   -0.504256
     22          1           0        3.205119   -0.000583   -1.474780
 ---------------------------------------------------------------------
                    Distance matrix (angstroms):
                    1          2          3          4          5
     1  C    0.000000
     2  C    1.401724   0.000000
     3  C    2.408059   1.406789   0.000000
     4  C    2.811188   2.457003   1.400915   0.000000
     5  C    2.407769   2.805344   2.403554   1.405746   0.000000
     6  C    1.405914   2.454858   2.807470   2.459561   1.404289
     7  H    3.396062   2.159849   1.087747   2.144555   3.386978
     8  H    1.087556   2.155359   3.396843   3.898729   3.391158
     9  C    2.543135   3.841922   4.321148   3.844828   2.539784
    10  H    2.630041   4.030439   4.816861   4.615368   3.439632
    11  H    3.277414   4.496713   4.844623   4.218366   2.884740
    12  H    3.277366   4.496671   4.844503   4.218218   2.884668
    13  C    2.541537   1.514771   2.540110   3.840949   4.320100
    14  H    3.273089   2.172005   2.863048   4.194070   4.829942
    15  H    3.267794   2.172036   2.868876   4.197882   4.829501
    16  H    2.642920   2.166490   3.448208   4.622592   4.828608
    17  C    4.320214   3.847273   2.545800   1.509153   2.527082
    18  H    4.822171   4.489191   3.272883   2.163275   2.843028
    19  H    4.827856   4.049988   2.644873   2.155718   3.433910
    20  H    4.822108   4.490100   3.274098   2.163264   2.841633
    21  O    3.330738   3.804247   3.286134   2.048834   1.000000
    22  H    3.528139   4.306630   4.046516   2.938126   1.642961
                    6          7          8          9         10
     6  C    0.000000
     7  H    3.895202   0.000000
     8  H    2.150569   4.299273   0.000000
     9  C    1.513682   5.408872   2.730853   0.000000
    10  H    2.156329   5.885672   2.358279   1.094102   0.000000
    11  H    2.181984   5.911794   3.494557   1.100142   1.763284
    12  H    2.181975   5.911621   3.494506   1.100143   1.763289
    13  C    3.844455   2.738205   2.743035   5.082665   5.022721
    14  H    4.492652   2.797480   3.511924   5.762896   5.738692
    15  H    4.488437   2.808461   3.503355   5.756328   5.730133
    16  H    4.047467   3.799175   2.385753   5.037383   4.742234
    17  C    3.833470   2.738659   5.407711   5.063820   5.952114
    18  H    4.178149   3.506006   5.888271   5.254181   6.198363
    19  H    4.614114   2.379279   5.897494   5.959574   6.768519
    20  H    4.177135   3.507978   5.888164   5.252478   6.196975
    21  O    2.112845   4.178624   4.239694   2.751497   3.798733
    22  H    2.140716   5.015155   4.257529   2.178920   3.272824
                   11         12         13         14         15
    11  H    0.000000
    12  H    1.776494   0.000000
    13  C    5.764709   5.764906   0.000000
    14  H    6.541999   6.298892   1.097772   0.000000
    15  H    6.291168   6.537239   1.097837   1.767137   0.000000
    16  H    5.751188   5.748989   1.095261   1.770208   1.770137
    17  C    5.286523   5.286343   5.084020   5.287125   5.293509
    18  H    5.247101   5.536653   5.759289   6.104651   5.850428
    19  H    6.235566   6.234848   5.037807   5.103305   5.113056
    20  H    5.534517   5.245165   5.760979   5.848193   6.113146
    21  O    2.859472   2.859407   5.318805   5.804816   5.804440
    22  H    2.148967   2.148931   5.801870   6.349991   6.347648
                   16         17         18         19         20
    16  H    0.000000
    17  C    5.976931   0.000000
    18  H    6.612948   1.096757   0.000000
    19  H    6.038401   1.094569   1.778397   0.000000
    20  H    6.612232   1.096722   1.756716   1.778449   0.000000
    21  O    5.818498   2.629954   2.702692   3.685483   2.700215
    22  H    6.146411   3.600860   3.595868   4.659902   3.593222
                   21         22
    21  O    0.000000
    22  H    0.974436   0.000000
 Symmetry turned off by external request.
 Stoichiometry    C9H12O
 Framework group  C1[X(C9H12O)]
 Deg. of freedom    60
 Full point group                 C1      NOp   1
 Rotational constants (GHZ):           1.7300930           1.3475211           0.7683844
 Standard basis: 6-31++G(d,p) (6D, 7F)
   262 basis functions,   416 primitive gaussians,   262 cartesian basis functions
    37 alpha electrons       37 beta electrons
       nuclear repulsion energy       527.9549813409 Hartrees.
 NAtoms=   22 NActive=   22 NUniq=   22 SFac= 1.00D+00 NAtFMM=   60 NAOKFM=F Big=F
 Integral buffers will be    131072 words long.
 Raffenetti 2 integral format.
 Two-electron integral symmetry is turned off.
 One-electron integrals computed using PRISM.
 NBasis=   262 RedAO= T EigKep=  1.45D-06  NBF=   262
 NBsUse=   261 1.00D-06 EigRej=  9.45D-07 NBFU=   261
 ExpMin= 3.60D-02 ExpMax= 5.48D+03 ExpMxC= 8.25D+02 IAcc=3 IRadAn=         5 AccDes= 0.00D+00
 Harris functional with IExCor=  402 and IRadAn=       5 diagonalized for initial guess.
 HarFok:  IExCor=  402 AccDes= 0.00D+00 IRadAn=         5 IDoV= 1 UseB2=F ITyADJ=14
 ICtDFT=  3500011 ScaDFX=  1.000000  1.000000  1.000000  1.000000
 FoFCou: FMM=F IPFlag=           0 FMFlag=      100000 FMFlg1=           0
         NFxFlg=           0 DoJE=T BraDBF=F KetDBF=T FulRan=T
         wScrn=  0.000000 ICntrl=       500 IOpCl=  0 I1Cent=   200000004 NGrid=           0
         NMat0=    1 NMatS0=      1 NMatT0=    0 NMatD0=    1 NMtDS0=    0 NMtDT0=    0
 Symmetry not used in FoFCou.
 Requested convergence on RMS density matrix=1.00D-08 within 128 cycles.
 Requested convergence on MAX density matrix=1.00D-06.
 Requested convergence on             energy=1.00D-06.
 No special actions if energy rises.
 SCF Done:  E(RB3LYP) =  -425.217379211     A.U. after   15 cycles
            NFock= 15  Conv=0.26D-08     -V/T= 2.0050

 **********************************************************************

            Population analysis using the SCF density.

 **********************************************************************

 Alpha  occ. eigenvalues --  -19.22937 -10.24390 -10.20308 -10.17791 -10.17292
 Alpha  occ. eigenvalues --  -10.17147 -10.16995 -10.16807 -10.16651 -10.16580
 Alpha  occ. eigenvalues --   -1.28461  -0.83690  -0.80082  -0.75985  -0.72347
 Alpha  occ. eigenvalues --   -0.69417  -0.67015  -0.64336  -0.59998  -0.55573
 Alpha  occ. eigenvalues --   -0.53927  -0.51314  -0.44161  -0.42871  -0.41918
 Alpha  occ. eigenvalues --   -0.41666  -0.40446  -0.40139  -0.39697  -0.39427
 Alpha  occ. eigenvalues --   -0.38284  -0.34668  -0.33143  -0.30811  -0.30681
 Alpha  occ. eigenvalues --   -0.22699  -0.17654
 Alpha virt. eigenvalues --   -0.02341   0.00215   0.00338   0.00628   0.01925
 Alpha virt. eigenvalues --    0.02174   0.02749   0.03329   0.03640   0.04220
 Alpha virt. eigenvalues --    0.04777   0.05455   0.05973   0.06420   0.07588
 Alpha virt. eigenvalues --    0.08148   0.09073   0.09339   0.10395   0.10416
 Alpha virt. eigenvalues --    0.11207   0.11757   0.12203   0.12542   0.13190
 Alpha virt. eigenvalues --    0.13636   0.13663   0.14379   0.14673   0.14828
 Alpha virt. eigenvalues --    0.15426   0.15551   0.16226   0.16672   0.17169
 Alpha virt. eigenvalues --    0.17478   0.18060   0.18320   0.18806   0.18866
 Alpha virt. eigenvalues --    0.20064   0.20201   0.21256   0.21713   0.22401
 Alpha virt. eigenvalues --    0.22453   0.24696   0.25266   0.26020   0.26620
 Alpha virt. eigenvalues --    0.27025   0.27362   0.27518   0.27850   0.29137
 Alpha virt. eigenvalues --    0.29387   0.30472   0.31486   0.32111   0.32239
 Alpha virt. eigenvalues --    0.32548   0.33877   0.34634   0.35588   0.36847
 Alpha virt. eigenvalues --    0.37084   0.39217   0.41340   0.41503   0.44073
 Alpha virt. eigenvalues --    0.45294   0.45945   0.47459   0.58780   0.60180
 Alpha virt. eigenvalues --    0.63385   0.69172   0.69652   0.70578   0.72071
 Alpha virt. eigenvalues --    0.72293   0.72918   0.74321   0.76622   0.77576
 Alpha virt. eigenvalues --    0.78335   0.78742   0.79021   0.79870   0.80501
 Alpha virt. eigenvalues --    0.80829   0.82975   0.83184   0.84304   0.88381
 Alpha virt. eigenvalues --    0.91349   0.92051   0.93147   0.96263   0.96822
 Alpha virt. eigenvalues --    0.98442   1.00032   1.02551   1.03250   1.05035
 Alpha virt. eigenvalues --    1.07008   1.09464   1.10531   1.13408   1.16241
 Alpha virt. eigenvalues --    1.17232   1.18481   1.19458   1.20889   1.21955
 Alpha virt. eigenvalues --    1.22778   1.23587   1.23882   1.25952   1.29948
 Alpha virt. eigenvalues --    1.30356   1.31569   1.31931   1.34174   1.36945
 Alpha virt. eigenvalues --    1.40301   1.41363   1.44318   1.50513   1.52714
 Alpha virt. eigenvalues --    1.57260   1.65027   1.65800   1.70528   1.73886
 Alpha virt. eigenvalues --    1.74436   1.75266   1.79836   1.82795   1.83344
 Alpha virt. eigenvalues --    1.86126   1.86561   1.88967   1.90067   1.93104
 Alpha virt. eigenvalues --    1.99096   1.99341   2.02258   2.02665   2.04774
 Alpha virt. eigenvalues --    2.05700   2.06641   2.06883   2.08451   2.11149
 Alpha virt. eigenvalues --    2.13137   2.14948   2.15216   2.16437   2.18823
 Alpha virt. eigenvalues --    2.20493   2.23667   2.27331   2.27619   2.30901
 Alpha virt. eigenvalues --    2.31005   2.34568   2.38707   2.42150   2.42783
 Alpha virt. eigenvalues --    2.43719   2.44429   2.46548   2.47878   2.54162
 Alpha virt. eigenvalues --    2.54653   2.56227   2.61900   2.62567   2.62851
 Alpha virt. eigenvalues --    2.65539   2.72017   2.72863   2.74953   2.75235
 Alpha virt. eigenvalues --    2.77063   2.79445   2.81321   2.81734   2.85687
 Alpha virt. eigenvalues --    2.87284   2.87306   2.88660   2.91018   2.92622
 Alpha virt. eigenvalues --    2.99474   3.07962   3.15003   3.21517   3.23818
 Alpha virt. eigenvalues --    3.25580   3.27792   3.31447   3.41852   3.42659
 Alpha virt. eigenvalues --    3.44902   3.45613   3.45842   3.48449   3.50744
 Alpha virt. eigenvalues --    3.54498   3.69131   3.72016   3.84704   4.34650
 Alpha virt. eigenvalues --    4.38901   4.40709   4.48542   4.50948   4.57701
 Alpha virt. eigenvalues --    4.61312   4.64197   4.92868   5.28372
          Condensed to atoms (all electrons):
               1          2          3          4          5          6
     1  C   13.729084  -2.543554   1.902650  -0.637019  -3.808597  -2.121497
     2  C   -2.543554  10.124281  -3.631966   1.740185   1.146190   0.714932
     3  C    1.902650  -3.631966  16.382093  -6.534413  -2.262595   0.735143
     4  C   -0.637019   1.740185  -6.534413  13.297305   2.234294  -2.776997
     5  C   -3.808597   1.146190  -2.262595   2.234294   9.628775  -0.281054
     6  C   -2.121497   0.714932   0.735143  -2.776997  -0.281054  11.968090
     7  H    0.215752  -0.053160   0.507619  -0.239788  -0.094603   0.041358
     8  H    0.394639  -0.020105   0.105707   0.078979  -0.007254  -0.159789
     9  C    0.541182  -0.718346   0.808895  -0.829539  -0.444296  -1.257507
    10  H   -0.040892   0.008998  -0.030565   0.003687   0.022147  -0.111439
    11  H    0.028356  -0.029589   0.029946  -0.025357  -0.006236  -0.202572
    12  H    0.026750  -0.028985   0.031143  -0.026299  -0.005953  -0.203626
    13  C   -0.782443  -0.709616  -0.623191   0.165206  -0.041872   0.123642
    14  H    0.025735  -0.134782  -0.004944   0.006744  -0.006958  -0.014325
    15  H    0.024397  -0.136760  -0.006119   0.007911  -0.006682  -0.013296
    16  H    0.001172  -0.129191   0.050393  -0.048825  -0.006600  -0.000305
    17  C    0.491575  -0.254441  -0.350725  -0.219823  -0.586851  -0.947705
    18  H    0.020060  -0.038194   0.107698  -0.161598  -0.072898  -0.019648
    19  H   -0.036153   0.041639  -0.114284  -0.071145   0.043622  -0.000890
    20  H    0.020144  -0.037325   0.104469  -0.159596  -0.072595  -0.020000
    21  O    0.089716  -0.137511   0.323872  -0.777421  -0.126966   0.221464
    22  H    0.067230  -0.012130   0.005320   0.106309  -0.030630  -0.159845
               7          8          9         10         11         12
     1  C    0.215752   0.394639   0.541182  -0.040892   0.028356   0.026750
     2  C   -0.053160  -0.020105  -0.718346   0.008998  -0.029589  -0.028985
     3  C    0.507619   0.105707   0.808895  -0.030565   0.029946   0.031143
     4  C   -0.239788   0.078979  -0.829539   0.003687  -0.025357  -0.026299
     5  C   -0.094603  -0.007254  -0.444296   0.022147  -0.006236  -0.005953
     6  C    0.041358  -0.159789  -1.257507  -0.111439  -0.202572  -0.203626
     7  H    0.722776  -0.003767   0.028732  -0.000127   0.000379   0.000390
     8  H   -0.003767   0.732400  -0.070872  -0.003419   0.002142   0.001951
     9  C    0.028732  -0.070872   7.419823   0.494520   0.532477   0.534137
    10  H   -0.000127  -0.003419   0.494520   0.457267  -0.010537  -0.010371
    11  H    0.000379   0.002142   0.532477  -0.010537   0.619432  -0.076793
    12  H    0.000390   0.001951   0.534137  -0.010371  -0.076793   0.619473
    13  C   -0.127677  -0.088791  -0.183288   0.000063  -0.003402  -0.003416
    14  H   -0.004169   0.001537  -0.002843  -0.000045   0.000194  -0.000342
    15  H   -0.004464   0.001382  -0.002871  -0.000031  -0.000343   0.000192
    16  H    0.005149   0.003047   0.006711  -0.000434   0.000123   0.000143
    17  C   -0.021090   0.022166  -0.150118   0.000125  -0.002499  -0.002607
    18  H    0.003908   0.000359   0.001285  -0.000105   0.000294   0.000032
    19  H   -0.003848  -0.000452  -0.002475   0.000183  -0.000102  -0.000104
    20  H    0.003740   0.000370   0.001276  -0.000106   0.000034   0.000295
    21  O    0.003070   0.002444   0.109412  -0.000214   0.009389   0.009387
    22  H   -0.000400  -0.000722  -0.014661   0.005832  -0.011070  -0.011076
              13         14         15         16         17         18
     1  C   -0.782443   0.025735   0.024397   0.001172   0.491575   0.020060
     2  C   -0.709616  -0.134782  -0.136760  -0.129191  -0.254441  -0.038194
     3  C   -0.623191  -0.004944  -0.006119   0.050393  -0.350725   0.107698
     4  C    0.165206   0.006744   0.007911  -0.048825  -0.219823  -0.161598
     5  C   -0.041872  -0.006958  -0.006682  -0.006600  -0.586851  -0.072898
     6  C    0.123642  -0.014325  -0.013296  -0.000305  -0.947705  -0.019648
     7  H   -0.127677  -0.004169  -0.004464   0.005149  -0.021090   0.003908
     8  H   -0.088791   0.001537   0.001382   0.003047   0.022166   0.000359
     9  C   -0.183288  -0.002843  -0.002871   0.006711  -0.150118   0.001285
    10  H    0.000063  -0.000045  -0.000031  -0.000434   0.000125  -0.000105
    11  H   -0.003402   0.000194  -0.000343   0.000123  -0.002499   0.000294
    12  H   -0.003416  -0.000342   0.000192   0.000143  -0.002607   0.000032
    13  C    7.283540   0.472952   0.474590   0.480175  -0.185069  -0.004429
    14  H    0.472952   0.569147  -0.047726  -0.021591   0.000137   0.000031
    15  H    0.474590  -0.047726   0.570194  -0.022163   0.000031  -0.000210
    16  H    0.480175  -0.021591  -0.022163   0.529292  -0.003736   0.000031
    17  C   -0.185069   0.000137   0.000031  -0.003736   7.290119   0.502740
    18  H   -0.004429   0.000031  -0.000210   0.000031   0.502740   0.572836
    19  H    0.004616   0.000185   0.000220  -0.000171   0.481203  -0.025038
    20  H   -0.004444  -0.000196   0.000034   0.000018   0.503343  -0.043848
    21  O    0.000377  -0.000271  -0.000269  -0.000152  -0.150667   0.003891
    22  H   -0.002260  -0.000012  -0.000015   0.000231   0.023413  -0.000047
              19         20         21         22
     1  C   -0.036153   0.020144   0.089716   0.067230
     2  C    0.041639  -0.037325  -0.137511  -0.012130
     3  C   -0.114284   0.104469   0.323872   0.005320
     4  C   -0.071145  -0.159596  -0.777421   0.106309
     5  C    0.043622  -0.072595  -0.126966  -0.030630
     6  C   -0.000890  -0.020000   0.221464  -0.159845
     7  H   -0.003848   0.003740   0.003070  -0.000400
     8  H   -0.000452   0.000370   0.002444  -0.000722
     9  C   -0.002475   0.001276   0.109412  -0.014661
    10  H    0.000183  -0.000106  -0.000214   0.005832
    11  H   -0.000102   0.000034   0.009389  -0.011070
    12  H   -0.000104   0.000295   0.009387  -0.011076
    13  C    0.004616  -0.004444   0.000377  -0.002260
    14  H    0.000185  -0.000196  -0.000271  -0.000012
    15  H    0.000220   0.000034  -0.000269  -0.000015
    16  H   -0.000171   0.000018  -0.000152   0.000231
    17  C    0.481203   0.503343  -0.150667   0.023413
    18  H   -0.025038  -0.043848   0.003891  -0.000047
    19  H    0.521374  -0.024793   0.002441  -0.000610
    20  H   -0.024793   0.572614   0.003904  -0.000077
    21  O    0.002441   0.003904   8.471306   0.199518
    22  H   -0.000610  -0.000077   0.199518   0.433775
 Mulliken charges:
               1
     1  C   -1.608287
     2  C    0.839430
     3  C   -1.536148
     4  C    0.867199
     5  C    0.787612
     6  C    0.485866
     7  H    0.020220
     8  H    0.008047
     9  C   -0.801636
    10  H    0.215462
    11  H    0.145734
    12  H    0.145680
    13  C   -0.245262
    14  H    0.161542
    15  H    0.161998
    16  H    0.156684
    17  C   -0.439519
    18  H    0.152851
    19  H    0.184582
    20  H    0.152738
    21  O   -0.256718
    22  H    0.401925
 Sum of Mulliken charges =   0.00000
 Mulliken charges with hydrogens summed into heavy atoms:
               1
     1  C   -1.600240
     2  C    0.839430
     3  C   -1.515928
     4  C    0.867199
     5  C    0.787612
     6  C    0.485866
     9  C   -0.294761
    13  C    0.234962
    17  C    0.050652
    21  O    0.145206
 Electronic spatial extent (au):  <R**2>=           2169.1416
 Charge=              0.0000 electrons
 Dipole moment (field-independent basis, Debye):
    X=              1.3924    Y=             -0.0011    Z=             -2.4824  Tot=              2.8462
 Quadrupole moment (field-independent basis, Debye-Ang):
   XX=            -55.7120   YY=            -64.2871   ZZ=            -56.4116
   XY=             -0.0024   XZ=             -5.0650   YZ=              0.0010
 Traceless Quadrupole moment (field-independent basis, Debye-Ang):
   XX=              3.0916   YY=             -5.4835   ZZ=              2.3920
   XY=             -0.0024   XZ=             -5.0650   YZ=              0.0010
 Octapole moment (field-independent basis, Debye-Ang**2):
  XXX=           -240.6647  YYY=              0.0289  ZZZ=           -105.3706  XYY=            -85.3437
  XXY=              0.0190  XXZ=            -53.3689  XZZ=            -72.0701  YZZ=              0.0282
  YYZ=            -38.2053  XYZ=              0.0047
 Hexadecapole moment (field-independent basis, Debye-Ang**3):
 XXXX=          -1762.5882 YYYY=            -97.2094 ZZZZ=          -1090.2988 XXXY=              0.0471
 XXXZ=           -158.9978 YYYX=              0.0692 YYYZ=             -0.0155 ZZZX=           -107.1244
 ZZZY=              0.1271 XXYY=           -309.2921 XXZZ=           -447.3229 YYZZ=           -206.7798
 XXYZ=              0.0079 YYXZ=            -42.8261 ZZXY=              0.0217
 N-N= 5.279549813409D+02 E-N=-2.043532693325D+03  KE= 4.230998295666D+02
 Variable Step   Value    
 -------- ---- -----------
    20       1    2.078699
 ---------------------------------------------------------------------------------------------------
                            Z-MATRIX (ANGSTROMS AND DEGREES)
   CD    Cent   Atom    N1       Length/X        N2       Alpha/Y        N3        Beta/Z          J
 ---------------------------------------------------------------------------------------------------
      1      1  C 
      2      2  C        1   1.401724(     1)
      3      3  C        2   1.406789(     2)      1  118.055(    22)
      4      4  C        3   1.400915(     3)      2  122.112(    23)      1   -0.009(    42)      0
      5      5  C        4   1.405746(     4)      3  117.824(    24)      2   -0.001(    43)      0
      6      6  C        5   1.404289(     5)      4  122.156(    25)      3    0.007(    44)      0
      7      7  H        3   1.087747(     6)      2  119.407(    26)      1  179.986(    45)      0
      8      8  H        1   1.087556(     7)      2  119.427(    27)      3 -179.989(    46)      0
      9      9  C        6   1.513682(     8)      5  120.963(    28)      4  179.989(    47)      0
     10     10  H        9   1.094102(     9)      6  110.528(    29)      5 -179.995(    48)      0
     11     11  H        9   1.100142(    10)      6  112.220(    30)      5   60.715(    49)      0
     12     12  H        9   1.100143(    11)      6  112.220(    31)      5  -60.706(    50)      0
     13     13  C        2   1.514771(    12)      1  121.203(    32)      6 -179.963(    51)      0
     14     14  H       13   1.097772(    13)      2  111.483(    33)      1 -120.596(    52)      0
     15     15  H       13   1.097837(    14)      2  111.482(    34)      1  119.653(    53)      0
     16     16  H       13   1.095261(    15)      2  111.193(    35)      1   -0.464(    54)      0
     17     17  C        4   1.509153(    16)      3  122.005(    36)      2 -179.998(    55)      0
     18     18  H       17   1.096757(    17)      4  111.242(    37)      3  120.656(    56)      0
     19     19  H       17   1.094569(    18)      4  110.769(    38)      3   -0.105(    57)      0
     20     20  H       17   1.096722(    19)      4  111.243(    39)      3 -120.877(    58)      0
     21     21  O        5   1.100000(    20)      4  115.754(    40)      3 -179.998(    59)      0
     22     22  H       21   0.974436(    21)      5  112.627(    41)      4 -179.993(    60)      0
 ---------------------------------------------------------------------------------------------------
                         Z-Matrix orientation:                         
 ---------------------------------------------------------------------
 Center     Atomic      Atomic             Coordinates (Angstroms)
 Number     Number       Type             X           Y           Z
 ---------------------------------------------------------------------
      1          6           0        0.000000    0.000000    0.000000
      2          6           0        0.000000    0.000000    1.401724
      3          6           0        1.241488    0.000000    2.063361
      4          6           0        2.456750   -0.000177    1.366439
      5          6           0        2.407463   -0.000387   -0.038442
      6          6           0        1.193111   -0.000277   -0.743693
      7          1           0        1.267147    0.000235    3.150805
      8          1           0       -0.947242    0.000179   -0.534331
      9          6           0        1.171532   -0.000268   -2.257221
     10          1           0        0.141536   -0.000091   -2.626230
     11          1           0        1.663642   -0.888595   -2.680325
     12          1           0        1.663947    0.887899   -2.680306
     13          6           0       -1.295637   -0.000528    2.186489
     14          1           0       -1.370506    0.878733    2.839481
     15          1           0       -1.377295   -0.888347    2.827079
     16          1           0       -2.163344    0.007384    1.518195
     17          6           0        3.787241   -0.000228    2.078715
     18          1           0        4.383478   -0.879688    1.806822
     19          1           0        3.646388    0.001770    3.164181
     20          1           0        4.385230    0.877024    1.803694
     21          8           0        3.380834   -0.000562   -0.550837
     22          1           0        3.293608   -0.000599   -1.521361
 ---------------------------------------------------------------------
                    Distance matrix (angstroms):
                    1          2          3          4          5
     1  C    0.000000
     2  C    1.401724   0.000000
     3  C    2.408059   1.406789   0.000000
     4  C    2.811188   2.457003   1.400915   0.000000
     5  C    2.407769   2.805344   2.403554   1.405746   0.000000
     6  C    1.405914   2.454858   2.807470   2.459561   1.404289
     7  H    3.396062   2.159849   1.087747   2.144555   3.386978
     8  H    1.087556   2.155359   3.396843   3.898729   3.391158
     9  C    2.543135   3.841922   4.321148   3.844828   2.539784
    10  H    2.630041   4.030439   4.816861   4.615368   3.439632
    11  H    3.277414   4.496713   4.844623   4.218366   2.884740
    12  H    3.277366   4.496671   4.844503   4.218218   2.884668
    13  C    2.541537   1.514771   2.540110   3.840949   4.320100
    14  H    3.273089   2.172005   2.863048   4.194070   4.829942
    15  H    3.267794   2.172036   2.868876   4.197882   4.829501
    16  H    2.642920   2.166490   3.448208   4.622592   4.828608
    17  C    4.320214   3.847273   2.545800   1.509153   2.527082
    18  H    4.822171   4.489191   3.272883   2.163275   2.843028
    19  H    4.827856   4.049988   2.644873   2.155718   3.433910
    20  H    4.822108   4.490100   3.274098   2.163264   2.841633
    21  O    3.425414   3.904168   3.377993   2.128352   1.100000
    22  H    3.628001   4.403666   4.130548   3.006613   1.727513
                    6          7          8          9         10
     6  C    0.000000
     7  H    3.895202   0.000000
     8  H    2.150569   4.299273   0.000000
     9  C    1.513682   5.408872   2.730853   0.000000
    10  H    2.156329   5.885672   2.358279   1.094102   0.000000
    11  H    2.181984   5.911794   3.494557   1.100142   1.763284
    12  H    2.181975   5.911621   3.494506   1.100143   1.763289
    13  C    3.844455   2.738205   2.743035   5.082665   5.022721
    14  H    4.492652   2.797480   3.511924   5.762896   5.738692
    15  H    4.488437   2.808461   3.503355   5.756328   5.730133
    16  H    4.047467   3.799175   2.385753   5.037383   4.742234
    17  C    3.833470   2.738659   5.407711   5.063820   5.952114
    18  H    4.178149   3.506006   5.888271   5.254181   6.198363
    19  H    4.614114   2.379279   5.897494   5.959574   6.768519
    20  H    4.177135   3.507978   5.888164   5.252478   6.196975
    21  O    2.196206   4.262608   4.328108   2.791551   3.847116
    22  H    2.239833   5.092709   4.354198   2.246040   3.340103
                   11         12         13         14         15
    11  H    0.000000
    12  H    1.776494   0.000000
    13  C    5.764709   5.764906   0.000000
    14  H    6.541999   6.298892   1.097772   0.000000
    15  H    6.291168   6.537239   1.097837   1.767137   0.000000
    16  H    5.751188   5.748989   1.095261   1.770208   1.770137
    17  C    5.286523   5.286343   5.084020   5.287125   5.293509
    18  H    5.247101   5.536653   5.759289   6.104651   5.850428
    19  H    6.235566   6.234848   5.037807   5.103305   5.113056
    20  H    5.534517   5.245165   5.760979   5.848193   6.113146
    21  O    2.876120   2.876056   5.418702   5.902766   5.902395
    22  H    2.188269   2.188236   5.899942   6.445473   6.443164
                   16         17         18         19         20
    16  H    0.000000
    17  C    5.976931   0.000000
    18  H    6.612948   1.096757   0.000000
    19  H    6.038401   1.094569   1.778397   0.000000
    20  H    6.612232   1.096722   1.756716   1.778449   0.000000
    21  O    5.917674   2.660773   2.708637   3.724498   2.706065
    22  H    6.246382   3.633761   3.610737   4.698805   3.608026
                   21         22
    21  O    0.000000
    22  H    0.974436   0.000000
 Symmetry turned off by external request.
 Stoichiometry    C9H12O
 Framework group  C1[X(C9H12O)]
 Deg. of freedom    60
 Full point group                 C1      NOp   1
 Rotational constants (GHZ):           1.7300866           1.3215561           0.7598702
 Standard basis: 6-31++G(d,p) (6D, 7F)
   262 basis functions,   416 primitive gaussians,   262 cartesian basis functions
    37 alpha electrons       37 beta electrons
       nuclear repulsion energy       523.3504359848 Hartrees.
 NAtoms=   22 NActive=   22 NUniq=   22 SFac= 1.00D+00 NAtFMM=   60 NAOKFM=F Big=F
 Integral buffers will be    131072 words long.
 Raffenetti 2 integral format.
 Two-electron integral symmetry is turned off.
 One-electron integrals computed using PRISM.
 NBasis=   262 RedAO= T EigKep=  1.41D-06  NBF=   262
 NBsUse=   261 1.00D-06 EigRej=  8.66D-07 NBFU=   261
 Initial guess from the checkpoint file:  "C:\Users\Administrator\Desktop\dataset_dft\C8H6O3\C8H6O3.chk"
 B after Tr=     0.020695   -0.000003   -0.011671
         Rot=    1.000000    0.000000    0.000177    0.000000 Ang=   0.02 deg.
 ExpMin= 3.60D-02 ExpMax= 5.48D+03 ExpMxC= 8.25D+02 IAcc=3 IRadAn=         5 AccDes= 0.00D+00
 Harris functional with IExCor=  402 and IRadAn=       5 diagonalized for initial guess.
 HarFok:  IExCor=  402 AccDes= 0.00D+00 IRadAn=         5 IDoV= 1 UseB2=F ITyADJ=14
 ICtDFT=  3500011 ScaDFX=  1.000000  1.000000  1.000000  1.000000
 FoFCou: FMM=F IPFlag=           0 FMFlag=      100000 FMFlg1=           0
         NFxFlg=           0 DoJE=T BraDBF=F KetDBF=T FulRan=T
         wScrn=  0.000000 ICntrl=       500 IOpCl=  0 I1Cent=   200000004 NGrid=           0
         NMat0=    1 NMatS0=      1 NMatT0=    0 NMatD0=    1 NMtDS0=    0 NMtDT0=    0
 Symmetry not used in FoFCou.
 Requested convergence on RMS density matrix=1.00D-08 within 128 cycles.
 Requested convergence on MAX density matrix=1.00D-06.
 Requested convergence on             energy=1.00D-06.
 No special actions if energy rises.
 SCF Done:  E(RB3LYP) =  -425.356251154     A.U. after   13 cycles
            NFock= 13  Conv=0.58D-08     -V/T= 2.0072
 Variable Step   Value    
 -------- ---- -----------
    20       2    2.267671
 ---------------------------------------------------------------------------------------------------
                            Z-MATRIX (ANGSTROMS AND DEGREES)
   CD    Cent   Atom    N1       Length/X        N2       Alpha/Y        N3        Beta/Z          J
 ---------------------------------------------------------------------------------------------------
      1      1  C 
      2      2  C        1   1.401724(     1)
      3      3  C        2   1.406789(     2)      1  118.055(    22)
      4      4  C        3   1.400915(     3)      2  122.112(    23)      1   -0.009(    42)      0
      5      5  C        4   1.405746(     4)      3  117.824(    24)      2   -0.001(    43)      0
      6      6  C        5   1.404289(     5)      4  122.156(    25)      3    0.007(    44)      0
      7      7  H        3   1.087747(     6)      2  119.407(    26)      1  179.986(    45)      0
      8      8  H        1   1.087556(     7)      2  119.427(    27)      3 -179.989(    46)      0
      9      9  C        6   1.513682(     8)      5  120.963(    28)      4  179.989(    47)      0
     10     10  H        9   1.094102(     9)      6  110.528(    29)      5 -179.995(    48)      0
     11     11  H        9   1.100142(    10)      6  112.220(    30)      5   60.715(    49)      0
     12     12  H        9   1.100143(    11)      6  112.220(    31)      5  -60.706(    50)      0
     13     13  C        2   1.514771(    12)      1  121.203(    32)      6 -179.963(    51)      0
     14     14  H       13   1.097772(    13)      2  111.483(    33)      1 -120.596(    52)      0
     15     15  H       13   1.097837(    14)      2  111.482(    34)      1  119.653(    53)      0
     16     16  H       13   1.095261(    15)      2  111.193(    35)      1   -0.464(    54)      0
     17     17  C        4   1.509153(    16)      3  122.005(    36)      2 -179.998(    55)      0
     18     18  H       17   1.096757(    17)      4  111.242(    37)      3  120.656(    56)      0
     19     19  H       17   1.094569(    18)      4  110.769(    38)      3   -0.105(    57)      0
     20     20  H       17   1.096722(    19)      4  111.243(    39)      3 -120.877(    58)      0
     21     21  O        5   1.200000(    20)      4  115.754(    40)      3 -179.998(    59)      0
     22     22  H       21   0.974436(    21)      5  112.627(    41)      4 -179.993(    60)      0
 ---------------------------------------------------------------------------------------------------
                         Z-Matrix orientation:                         
 ---------------------------------------------------------------------
 Center     Atomic      Atomic             Coordinates (Angstroms)
 Number     Number       Type             X           Y           Z
 ---------------------------------------------------------------------
      1          6           0        0.000000    0.000000    0.000000
      2          6           0        0.000000    0.000000    1.401724
      3          6           0        1.241488    0.000000    2.063361
      4          6           0        2.456750   -0.000177    1.366439
      5          6           0        2.407463   -0.000387   -0.038442
      6          6           0        1.193111   -0.000277   -0.743693
      7          1           0        1.267147    0.000235    3.150805
      8          1           0       -0.947242    0.000179   -0.534331
      9          6           0        1.171532   -0.000268   -2.257221
     10          1           0        0.141536   -0.000091   -2.626230
     11          1           0        1.663642   -0.888595   -2.680325
     12          1           0        1.663947    0.887899   -2.680306
     13          6           0       -1.295637   -0.000528    2.186489
     14          1           0       -1.370506    0.878733    2.839481
     15          1           0       -1.377295   -0.888347    2.827079
     16          1           0       -2.163344    0.007384    1.518195
     17          6           0        3.787241   -0.000228    2.078715
     18          1           0        4.383478   -0.879688    1.806822
     19          1           0        3.646388    0.001770    3.164181
     20          1           0        4.385230    0.877024    1.803694
     21          8           0        3.469322   -0.000578   -0.597419
     22          1           0        3.382096   -0.000615   -1.567943
 ---------------------------------------------------------------------
                    Distance matrix (angstroms):
                    1          2          3          4          5
     1  C    0.000000
     2  C    1.401724   0.000000
     3  C    2.408059   1.406789   0.000000
     4  C    2.811188   2.457003   1.400915   0.000000
     5  C    2.407769   2.805344   2.403554   1.405746   0.000000
     6  C    1.405914   2.454858   2.807470   2.459561   1.404289
     7  H    3.396062   2.159849   1.087747   2.144555   3.386978
     8  H    1.087556   2.155359   3.396843   3.898729   3.391158
     9  C    2.543135   3.841922   4.321148   3.844828   2.539784
    10  H    2.630041   4.030439   4.816861   4.615368   3.439632
    11  H    3.277414   4.496713   4.844623   4.218366   2.884740
    12  H    3.277366   4.496671   4.844503   4.218218   2.884668
    13  C    2.541537   1.514771   2.540110   3.840949   4.320100
    14  H    3.273089   2.172005   2.863048   4.194070   4.829942
    15  H    3.267794   2.172036   2.868876   4.197882   4.829501
    16  H    2.642920   2.166490   3.448208   4.622592   4.828608
    17  C    4.320214   3.847273   2.545800   1.509153   2.527082
    18  H    4.822171   4.489191   3.272883   2.163275   2.843028
    19  H    4.827856   4.049988   2.644873   2.155718   3.433910
    20  H    4.822108   4.490100   3.274098   2.163264   2.841633
    21  O    3.520384   4.004094   3.470302   2.209534   1.200000
    22  H    3.727870   4.500832   4.215278   3.076827   1.813638
                    6          7          8          9         10
     6  C    0.000000
     7  H    3.895202   0.000000
     8  H    2.150569   4.299273   0.000000
     9  C    1.513682   5.408872   2.730853   0.000000
    10  H    2.156329   5.885672   2.358279   1.094102   0.000000
    11  H    2.181984   5.911794   3.494557   1.100142   1.763284
    12  H    2.181975   5.911621   3.494506   1.100143   1.763289
    13  C    3.844455   2.738205   2.743035   5.082665   5.022721
    14  H    4.492652   2.797480   3.511924   5.762896   5.738692
    15  H    4.488437   2.808461   3.503355   5.756328   5.730133
    16  H    4.047467   3.799175   2.385753   5.037383   4.742234
    17  C    3.833470   2.738659   5.407711   5.063820   5.952114
    18  H    4.178149   3.506006   5.888271   5.254181   6.198363
    19  H    4.614114   2.379279   5.897494   5.959574   6.768519
    20  H    4.177135   3.507978   5.888164   5.252478   6.196975
    21  O    2.280906   4.347270   4.417015   2.834569   3.897465
    22  H    2.339026   5.171034   4.451014   2.315534   3.408988
                   11         12         13         14         15
    11  H    0.000000
    12  H    1.776494   0.000000
    13  C    5.764709   5.764906   0.000000
    14  H    6.541999   6.298892   1.097772   0.000000
    15  H    6.291168   6.537239   1.097837   1.767137   0.000000
    16  H    5.751188   5.748989   1.095261   1.770208   1.770137
    17  C    5.286523   5.286343   5.084020   5.287125   5.293509
    18  H    5.247101   5.536653   5.759289   6.104651   5.850428
    19  H    6.235566   6.234848   5.037807   5.103305   5.113056
    20  H    5.534517   5.245165   5.760979   5.848193   6.113146
    21  O    2.896127   2.896064   5.518603   6.000783   6.000418
    22  H    2.231365   2.231332   5.998078   6.541090   6.538814
                   16         17         18         19         20
    16  H    0.000000
    17  C    5.976931   0.000000
    18  H    6.612948   1.096757   0.000000
    19  H    6.038401   1.094569   1.778397   0.000000
    20  H    6.612232   1.096722   1.756716   1.778449   0.000000
    21  O    6.016877   2.694951   2.718251   3.765766   2.715587
    22  H    6.346354   3.669094   3.628302   4.739499   3.625529
                   21         22
    21  O    0.000000
    22  H    0.974436   0.000000
 Symmetry turned off by external request.
 Stoichiometry    C9H12O
 Framework group  C1[X(C9H12O)]
 Deg. of freedom    60
 Full point group                 C1      NOp   1
 Rotational constants (GHZ):           1.7300810           1.2955834           0.7512101
 Standard basis: 6-31++G(d,p) (6D, 7F)
   262 basis functions,   416 primitive gaussians,   262 cartesian basis functions
    37 alpha electrons       37 beta electrons
       nuclear repulsion energy       519.2109905929 Hartrees.
 NAtoms=   22 NActive=   22 NUniq=   22 SFac= 1.00D+00 NAtFMM=   60 NAOKFM=F Big=F
 Integral buffers will be    131072 words long.
 Raffenetti 2 integral format.
 Two-electron integral symmetry is turned off.
 One-electron integrals computed using PRISM.
 NBasis=   262 RedAO= T EigKep=  1.38D-06  NBF=   262
 NBsUse=   261 1.00D-06 EigRej=  8.05D-07 NBFU=   261
 Initial guess from the checkpoint file:  "C:\Users\Administrator\Desktop\dataset_dft\C8H6O3\C8H6O3.chk"
 B after Tr=     0.020687   -0.000003   -0.011669
         Rot=    1.000000    0.000000    0.000176    0.000000 Ang=   0.02 deg.
 ExpMin= 3.60D-02 ExpMax= 5.48D+03 ExpMxC= 8.25D+02 IAcc=3 IRadAn=         5 AccDes= 0.00D+00
 Harris functional with IExCor=  402 and IRadAn=       5 diagonalized for initial guess.
 HarFok:  IExCor=  402 AccDes= 0.00D+00 IRadAn=         5 IDoV= 1 UseB2=F ITyADJ=14
 ICtDFT=  3500011 ScaDFX=  1.000000  1.000000  1.000000  1.000000
 FoFCou: FMM=F IPFlag=           0 FMFlag=      100000 FMFlg1=           0
         NFxFlg=           0 DoJE=T BraDBF=F KetDBF=T FulRan=T
         wScrn=  0.000000 ICntrl=       500 IOpCl=  0 I1Cent=   200000004 NGrid=           0
         NMat0=    1 NMatS0=      1 NMatT0=    0 NMatD0=    1 NMtDS0=    0 NMtDT0=    0
 Symmetry not used in FoFCou.
 Requested convergence on RMS density matrix=1.00D-08 within 128 cycles.
 Requested convergence on MAX density matrix=1.00D-06.
 Requested convergence on             energy=1.00D-06.
 No special actions if energy rises.
 SCF Done:  E(RB3LYP) =  -425.423780457     A.U. after   13 cycles
            NFock= 13  Conv=0.47D-08     -V/T= 2.0086
 Variable Step   Value    
 -------- ---- -----------
    20       3    2.456644
 ---------------------------------------------------------------------------------------------------
                            Z-MATRIX (ANGSTROMS AND DEGREES)
   CD    Cent   Atom    N1       Length/X        N2       Alpha/Y        N3        Beta/Z          J
 ---------------------------------------------------------------------------------------------------
      1      1  C 
      2      2  C        1   1.401724(     1)
      3      3  C        2   1.406789(     2)      1  118.055(    22)
      4      4  C        3   1.400915(     3)      2  122.112(    23)      1   -0.009(    42)      0
      5      5  C        4   1.405746(     4)      3  117.824(    24)      2   -0.001(    43)      0
      6      6  C        5   1.404289(     5)      4  122.156(    25)      3    0.007(    44)      0
      7      7  H        3   1.087747(     6)      2  119.407(    26)      1  179.986(    45)      0
      8      8  H        1   1.087556(     7)      2  119.427(    27)      3 -179.989(    46)      0
      9      9  C        6   1.513682(     8)      5  120.963(    28)      4  179.989(    47)      0
     10     10  H        9   1.094102(     9)      6  110.528(    29)      5 -179.995(    48)      0
     11     11  H        9   1.100142(    10)      6  112.220(    30)      5   60.715(    49)      0
     12     12  H        9   1.100143(    11)      6  112.220(    31)      5  -60.706(    50)      0
     13     13  C        2   1.514771(    12)      1  121.203(    32)      6 -179.963(    51)      0
     14     14  H       13   1.097772(    13)      2  111.483(    33)      1 -120.596(    52)      0
     15     15  H       13   1.097837(    14)      2  111.482(    34)      1  119.653(    53)      0
     16     16  H       13   1.095261(    15)      2  111.193(    35)      1   -0.464(    54)      0
     17     17  C        4   1.509153(    16)      3  122.005(    36)      2 -179.998(    55)      0
     18     18  H       17   1.096757(    17)      4  111.242(    37)      3  120.656(    56)      0
     19     19  H       17   1.094569(    18)      4  110.769(    38)      3   -0.105(    57)      0
     20     20  H       17   1.096722(    19)      4  111.243(    39)      3 -120.877(    58)      0
     21     21  O        5   1.300000(    20)      4  115.754(    40)      3 -179.998(    59)      0
     22     22  H       21   0.974436(    21)      5  112.627(    41)      4 -179.993(    60)      0
 ---------------------------------------------------------------------------------------------------
                         Z-Matrix orientation:                         
 ---------------------------------------------------------------------
 Center     Atomic      Atomic             Coordinates (Angstroms)
 Number     Number       Type             X           Y           Z
 ---------------------------------------------------------------------
      1          6           0        0.000000    0.000000    0.000000
      2          6           0        0.000000    0.000000    1.401724
      3          6           0        1.241488    0.000000    2.063361
      4          6           0        2.456750   -0.000177    1.366439
      5          6           0        2.407463   -0.000387   -0.038442
      6          6           0        1.193111   -0.000277   -0.743693
      7          1           0        1.267147    0.000235    3.150805
      8          1           0       -0.947242    0.000179   -0.534331
      9          6           0        1.171532   -0.000268   -2.257221
     10          1           0        0.141536   -0.000091   -2.626230
     11          1           0        1.663642   -0.888595   -2.680325
     12          1           0        1.663947    0.887899   -2.680306
     13          6           0       -1.295637   -0.000528    2.186489
     14          1           0       -1.370506    0.878733    2.839481
     15          1           0       -1.377295   -0.888347    2.827079
     16          1           0       -2.163344    0.007384    1.518195
     17          6           0        3.787241   -0.000228    2.078715
     18          1           0        4.383478   -0.879688    1.806822
     19          1           0        3.646388    0.001770    3.164181
     20          1           0        4.385230    0.877024    1.803694
     21          8           0        3.557810   -0.000594   -0.644000
     22          1           0        3.470584   -0.000631   -1.614524
 ---------------------------------------------------------------------
                    Distance matrix (angstroms):
                    1          2          3          4          5
     1  C    0.000000
     2  C    1.401724   0.000000
     3  C    2.408059   1.406789   0.000000
     4  C    2.811188   2.457003   1.400915   0.000000
     5  C    2.407769   2.805344   2.403554   1.405746   0.000000
     6  C    1.405914   2.454858   2.807470   2.459561   1.404289
     7  H    3.396062   2.159849   1.087747   2.144555   3.386978
     8  H    1.087556   2.155359   3.396843   3.898729   3.391158
     9  C    2.543135   3.841922   4.321148   3.844828   2.539784
    10  H    2.630041   4.030439   4.816861   4.615368   3.439632
    11  H    3.277414   4.496713   4.844623   4.218366   2.884740
    12  H    3.277366   4.496671   4.844503   4.218218   2.884668
    13  C    2.541537   1.514771   2.540110   3.840949   4.320100
    14  H    3.273089   2.172005   2.863048   4.194070   4.829942
    15  H    3.267794   2.172036   2.868876   4.197882   4.829501
    16  H    2.642920   2.166490   3.448208   4.622592   4.828608
    17  C    4.320214   3.847273   2.545800   1.509153   2.527082
    18  H    4.822171   4.489191   3.272883   2.163275   2.843028
    19  H    4.827856   4.049988   2.644873   2.155718   3.433910
    20  H    4.822108   4.490100   3.274098   2.163264   2.841633
    21  O    3.615626   4.104022   3.563026   2.292204   1.300000
    22  H    3.827746   4.598120   4.300664   3.148651   1.901121
                    6          7          8          9         10
     6  C    0.000000
     7  H    3.895202   0.000000
     8  H    2.150569   4.299273   0.000000
     9  C    1.513682   5.408872   2.730853   0.000000
    10  H    2.156329   5.885672   2.358279   1.094102   0.000000
    11  H    2.181984   5.911794   3.494557   1.100142   1.763284
    12  H    2.181975   5.911621   3.494506   1.100143   1.763289
    13  C    3.844455   2.738205   2.743035   5.082665   5.022721
    14  H    4.492652   2.797480   3.511924   5.762896   5.738692
    15  H    4.488437   2.808461   3.503355   5.756328   5.730133
    16  H    4.047467   3.799175   2.385753   5.037383   4.742234
    17  C    3.833470   2.738659   5.407711   5.063820   5.952114
    18  H    4.178149   3.506006   5.888271   5.254181   6.198363
    19  H    4.614114   2.379279   5.897494   5.959574   6.768519
    20  H    4.177135   3.507978   5.888164   5.252478   6.196975
    21  O    2.366799   4.432571   4.506387   2.880418   3.949704
    22  H    2.438284   5.250095   4.547968   2.387195   3.479384
                   11         12         13         14         15
    11  H    0.000000
    12  H    1.776494   0.000000
    13  C    5.764709   5.764906   0.000000
    14  H    6.541999   6.298892   1.097772   0.000000
    15  H    6.291168   6.537239   1.097837   1.767137   0.000000
    16  H    5.751188   5.748989   1.095261   1.770208   1.770137
    17  C    5.286523   5.286343   5.084020   5.287125   5.293509
    18  H    5.247101   5.536653   5.759289   6.104651   5.850428
    19  H    6.235566   6.234848   5.037807   5.103305   5.113056
    20  H    5.534517   5.245165   5.760979   5.848193   6.113146
    21  O    2.919425   2.919363   5.618507   6.098865   6.098505
    22  H    2.278037   2.278007   6.096275   6.636836   6.634592
                   16         17         18         19         20
    16  H    0.000000
    17  C    5.976931   0.000000
    18  H    6.612948   1.096757   0.000000
    19  H    6.038401   1.094569   1.778397   0.000000
    20  H    6.612232   1.096722   1.756716   1.778449   0.000000
    21  O    6.116106   2.732364   2.731495   3.809212   2.728744
    22  H    6.446328   3.706789   3.648524   4.781938   3.645692
                   21         22
    21  O    0.000000
    22  H    0.974436   0.000000
 Symmetry turned off by external request.
 Stoichiometry    C9H12O
 Framework group  C1[X(C9H12O)]
 Deg. of freedom    60
 Full point group                 C1      NOp   1
 Rotational constants (GHZ):           1.7300761           1.2696616           0.7424205
 Standard basis: 6-31++G(d,p) (6D, 7F)
   262 basis functions,   416 primitive gaussians,   262 cartesian basis functions
    37 alpha electrons       37 beta electrons
       nuclear repulsion energy       515.4449059047 Hartrees.
 NAtoms=   22 NActive=   22 NUniq=   22 SFac= 1.00D+00 NAtFMM=   60 NAOKFM=F Big=F
 Integral buffers will be    131072 words long.
 Raffenetti 2 integral format.
 Two-electron integral symmetry is turned off.
 One-electron integrals computed using PRISM.
 NBasis=   262 RedAO= T EigKep=  1.36D-06  NBF=   262
 NBsUse=   261 1.00D-06 EigRej=  7.65D-07 NBFU=   261
 Initial guess from the checkpoint file:  "C:\Users\Administrator\Desktop\dataset_dft\C8H6O3\C8H6O3.chk"
 B after Tr=     0.020680   -0.000003   -0.011666
         Rot=    1.000000    0.000000    0.000174    0.000000 Ang=   0.02 deg.
 ExpMin= 3.60D-02 ExpMax= 5.48D+03 ExpMxC= 8.25D+02 IAcc=3 IRadAn=         5 AccDes= 0.00D+00
 Harris functional with IExCor=  402 and IRadAn=       5 diagonalized for initial guess.
 HarFok:  IExCor=  402 AccDes= 0.00D+00 IRadAn=         5 IDoV= 1 UseB2=F ITyADJ=14
 ICtDFT=  3500011 ScaDFX=  1.000000  1.000000  1.000000  1.000000
 FoFCou: FMM=F IPFlag=           0 FMFlag=      100000 FMFlg1=           0
         NFxFlg=           0 DoJE=T BraDBF=F KetDBF=T FulRan=T
         wScrn=  0.000000 ICntrl=       500 IOpCl=  0 I1Cent=   200000004 NGrid=           0
         NMat0=    1 NMatS0=      1 NMatT0=    0 NMatD0=    1 NMtDS0=    0 NMtDT0=    0
 Symmetry not used in FoFCou.
 Requested convergence on RMS density matrix=1.00D-08 within 128 cycles.
 Requested convergence on MAX density matrix=1.00D-06.
 Requested convergence on             energy=1.00D-06.
 No special actions if energy rises.
 SCF Done:  E(RB3LYP) =  -425.450906193     A.U. after   13 cycles
            NFock= 13  Conv=0.40D-08     -V/T= 2.0095
 Variable Step   Value    
 -------- ---- -----------
    20       4    2.645617
 ---------------------------------------------------------------------------------------------------
                            Z-MATRIX (ANGSTROMS AND DEGREES)
   CD    Cent   Atom    N1       Length/X        N2       Alpha/Y        N3        Beta/Z          J
 ---------------------------------------------------------------------------------------------------
      1      1  C 
      2      2  C        1   1.401724(     1)
      3      3  C        2   1.406789(     2)      1  118.055(    22)
      4      4  C        3   1.400915(     3)      2  122.112(    23)      1   -0.009(    42)      0
      5      5  C        4   1.405746(     4)      3  117.824(    24)      2   -0.001(    43)      0
      6      6  C        5   1.404289(     5)      4  122.156(    25)      3    0.007(    44)      0
      7      7  H        3   1.087747(     6)      2  119.407(    26)      1  179.986(    45)      0
      8      8  H        1   1.087556(     7)      2  119.427(    27)      3 -179.989(    46)      0
      9      9  C        6   1.513682(     8)      5  120.963(    28)      4  179.989(    47)      0
     10     10  H        9   1.094102(     9)      6  110.528(    29)      5 -179.995(    48)      0
     11     11  H        9   1.100142(    10)      6  112.220(    30)      5   60.715(    49)      0
     12     12  H        9   1.100143(    11)      6  112.220(    31)      5  -60.706(    50)      0
     13     13  C        2   1.514771(    12)      1  121.203(    32)      6 -179.963(    51)      0
     14     14  H       13   1.097772(    13)      2  111.483(    33)      1 -120.596(    52)      0
     15     15  H       13   1.097837(    14)      2  111.482(    34)      1  119.653(    53)      0
     16     16  H       13   1.095261(    15)      2  111.193(    35)      1   -0.464(    54)      0
     17     17  C        4   1.509153(    16)      3  122.005(    36)      2 -179.998(    55)      0
     18     18  H       17   1.096757(    17)      4  111.242(    37)      3  120.656(    56)      0
     19     19  H       17   1.094569(    18)      4  110.769(    38)      3   -0.105(    57)      0
     20     20  H       17   1.096722(    19)      4  111.243(    39)      3 -120.877(    58)      0
     21     21  O        5   1.400000(    20)      4  115.754(    40)      3 -179.998(    59)      0
     22     22  H       21   0.974436(    21)      5  112.627(    41)      4 -179.993(    60)      0
 ---------------------------------------------------------------------------------------------------
                         Z-Matrix orientation:                         
 ---------------------------------------------------------------------
 Center     Atomic      Atomic             Coordinates (Angstroms)
 Number     Number       Type             X           Y           Z
 ---------------------------------------------------------------------
      1          6           0        0.000000    0.000000    0.000000
      2          6           0        0.000000    0.000000    1.401724
      3          6           0        1.241488    0.000000    2.063361
      4          6           0        2.456750   -0.000177    1.366439
      5          6           0        2.407463   -0.000387   -0.038442
      6          6           0        1.193111   -0.000277   -0.743693
      7          1           0        1.267147    0.000235    3.150805
      8          1           0       -0.947242    0.000179   -0.534331
      9          6           0        1.171532   -0.000268   -2.257221
     10          1           0        0.141536   -0.000091   -2.626230
     11          1           0        1.663642   -0.888595   -2.680325
     12          1           0        1.663947    0.887899   -2.680306
     13          6           0       -1.295637   -0.000528    2.186489
     14          1           0       -1.370506    0.878733    2.839481
     15          1           0       -1.377295   -0.888347    2.827079
     16          1           0       -2.163344    0.007384    1.518195
     17          6           0        3.787241   -0.000228    2.078715
     18          1           0        4.383478   -0.879688    1.806822
     19          1           0        3.646388    0.001770    3.164181
     20          1           0        4.385230    0.877024    1.803694
     21          8           0        3.646299   -0.000609   -0.690581
     22          1           0        3.559073   -0.000647   -1.661105
 ---------------------------------------------------------------------
                    Distance matrix (angstroms):
                    1          2          3          4          5
     1  C    0.000000
     2  C    1.401724   0.000000
     3  C    2.408059   1.406789   0.000000
     4  C    2.811188   2.457003   1.400915   0.000000
     5  C    2.407769   2.805344   2.403554   1.405746   0.000000
     6  C    1.405914   2.454858   2.807470   2.459561   1.404289
     7  H    3.396062   2.159849   1.087747   2.144555   3.386978
     8  H    1.087556   2.155359   3.396843   3.898729   3.391158
     9  C    2.543135   3.841922   4.321148   3.844828   2.539784
    10  H    2.630041   4.030439   4.816861   4.615368   3.439632
    11  H    3.277414   4.496713   4.844623   4.218366   2.884740
    12  H    3.277366   4.496671   4.844503   4.218218   2.884668
    13  C    2.541537   1.514771   2.540110   3.840949   4.320100
    14  H    3.273089   2.172005   2.863048   4.194070   4.829942
    15  H    3.267794   2.172036   2.868876   4.197882   4.829501
    16  H    2.642920   2.166490   3.448208   4.622592   4.828608
    17  C    4.320214   3.847273   2.545800   1.509153   2.527082
    18  H    4.822171   4.489191   3.272883   2.163275   2.843028
    19  H    4.827856   4.049988   2.644873   2.155718   3.433910
    20  H    4.822108   4.490100   3.274098   2.163264   2.841633
    21  O    3.711118   4.203955   3.656134   2.376207   1.400000
    22  H    3.927629   4.695521   4.386667   3.221978   1.989784
                    6          7          8          9         10
     6  C    0.000000
     7  H    3.895202   0.000000
     8  H    2.150569   4.299273   0.000000
     9  C    1.513682   5.408872   2.730853   0.000000
    10  H    2.156329   5.885672   2.358279   1.094102   0.000000
    11  H    2.181984   5.911794   3.494557   1.100142   1.763284
    12  H    2.181975   5.911621   3.494506   1.100143   1.763289
    13  C    3.844455   2.738205   2.743035   5.082665   5.022721
    14  H    4.492652   2.797480   3.511924   5.762896   5.738692
    15  H    4.488437   2.808461   3.503355   5.756328   5.730133
    16  H    4.047467   3.799175   2.385753   5.037383   4.742234
    17  C    3.833470   2.738659   5.407711   5.063820   5.952114
    18  H    4.178149   3.506006   5.888271   5.254181   6.198363
    19  H    4.614114   2.379279   5.897494   5.959574   6.768519
    20  H    4.177135   3.507978   5.888164   5.252478   6.196975
    21  O    2.453762   4.518475   4.596198   2.928964   4.003760
    22  H    2.537601   5.329860   4.645051   2.460834   3.551200
                   11         12         13         14         15
    11  H    0.000000
    12  H    1.776494   0.000000
    13  C    5.764709   5.764906   0.000000
    14  H    6.541999   6.298892   1.097772   0.000000
    15  H    6.291168   6.537239   1.097837   1.767137   0.000000
    16  H    5.751188   5.748989   1.095261   1.770208   1.770137
    17  C    5.286523   5.286343   5.084020   5.287125   5.293509
    18  H    5.247101   5.536653   5.759289   6.104651   5.850428
    19  H    6.235566   6.234848   5.037807   5.103305   5.113056
    20  H    5.534517   5.245165   5.760979   5.848193   6.113146
    21  O    2.945934   2.945873   5.718414   6.197008   6.196653
    22  H    2.328072   2.328043   6.194529   6.732706   6.730493
                   16         17         18         19         20
    16  H    0.000000
    17  C    5.976931   0.000000
    18  H    6.612948   1.096757   0.000000
    19  H    6.038401   1.094569   1.778397   0.000000
    20  H    6.612232   1.096722   1.756716   1.778449   0.000000
    21  O    6.215360   2.772881   2.748315   3.854763   2.745482
    22  H    6.546302   3.746774   3.671359   4.826077   3.668471
                   21         22
    21  O    0.000000
    22  H    0.974436   0.000000
 Symmetry turned off by external request.
 Stoichiometry    C9H12O
 Framework group  C1[X(C9H12O)]
 Deg. of freedom    60
 Full point group                 C1      NOp   1
 Rotational constants (GHZ):           1.7300717           1.2438448           0.7335173
 Standard basis: 6-31++G(d,p) (6D, 7F)
   262 basis functions,   416 primitive gaussians,   262 cartesian basis functions
    37 alpha electrons       37 beta electrons
       nuclear repulsion energy       511.9858005720 Hartrees.
 NAtoms=   22 NActive=   22 NUniq=   22 SFac= 1.00D+00 NAtFMM=   60 NAOKFM=F Big=F
 Integral buffers will be    131072 words long.
 Raffenetti 2 integral format.
 Two-electron integral symmetry is turned off.
 One-electron integrals computed using PRISM.
 NBasis=   262 RedAO= T EigKep=  1.35D-06  NBF=   262
 NBsUse=   261 1.00D-06 EigRej=  7.43D-07 NBFU=   261
 Initial guess from the checkpoint file:  "C:\Users\Administrator\Desktop\dataset_dft\C8H6O3\C8H6O3.chk"
 B after Tr=     0.020673   -0.000003   -0.011662
         Rot=    1.000000    0.000000    0.000172    0.000000 Ang=   0.02 deg.
 ExpMin= 3.60D-02 ExpMax= 5.48D+03 ExpMxC= 8.25D+02 IAcc=3 IRadAn=         5 AccDes= 0.00D+00
 Harris functional with IExCor=  402 and IRadAn=       5 diagonalized for initial guess.
 HarFok:  IExCor=  402 AccDes= 0.00D+00 IRadAn=         5 IDoV= 1 UseB2=F ITyADJ=14
 ICtDFT=  3500011 ScaDFX=  1.000000  1.000000  1.000000  1.000000
 FoFCou: FMM=F IPFlag=           0 FMFlag=      100000 FMFlg1=           0
         NFxFlg=           0 DoJE=T BraDBF=F KetDBF=T FulRan=T
         wScrn=  0.000000 ICntrl=       500 IOpCl=  0 I1Cent=   200000004 NGrid=           0
         NMat0=    1 NMatS0=      1 NMatT0=    0 NMatD0=    1 NMtDS0=    0 NMtDT0=    0
 Symmetry not used in FoFCou.
 Requested convergence on RMS density matrix=1.00D-08 within 128 cycles.
 Requested convergence on MAX density matrix=1.00D-06.
 Requested convergence on             energy=1.00D-06.
 No special actions if energy rises.
 SCF Done:  E(RB3LYP) =  -425.455395258     A.U. after   13 cycles
            NFock= 13  Conv=0.46D-08     -V/T= 2.0101
 Variable Step   Value    
 -------- ---- -----------
    20       5    2.834589
 ---------------------------------------------------------------------------------------------------
                            Z-MATRIX (ANGSTROMS AND DEGREES)
   CD    Cent   Atom    N1       Length/X        N2       Alpha/Y        N3        Beta/Z          J
 ---------------------------------------------------------------------------------------------------
      1      1  C 
      2      2  C        1   1.401724(     1)
      3      3  C        2   1.406789(     2)      1  118.055(    22)
      4      4  C        3   1.400915(     3)      2  122.112(    23)      1   -0.009(    42)      0
      5      5  C        4   1.405746(     4)      3  117.824(    24)      2   -0.001(    43)      0
      6      6  C        5   1.404289(     5)      4  122.156(    25)      3    0.007(    44)      0
      7      7  H        3   1.087747(     6)      2  119.407(    26)      1  179.986(    45)      0
      8      8  H        1   1.087556(     7)      2  119.427(    27)      3 -179.989(    46)      0
      9      9  C        6   1.513682(     8)      5  120.963(    28)      4  179.989(    47)      0
     10     10  H        9   1.094102(     9)      6  110.528(    29)      5 -179.995(    48)      0
     11     11  H        9   1.100142(    10)      6  112.220(    30)      5   60.715(    49)      0
     12     12  H        9   1.100143(    11)      6  112.220(    31)      5  -60.706(    50)      0
     13     13  C        2   1.514771(    12)      1  121.203(    32)      6 -179.963(    51)      0
     14     14  H       13   1.097772(    13)      2  111.483(    33)      1 -120.596(    52)      0
     15     15  H       13   1.097837(    14)      2  111.482(    34)      1  119.653(    53)      0
     16     16  H       13   1.095261(    15)      2  111.193(    35)      1   -0.464(    54)      0
     17     17  C        4   1.509153(    16)      3  122.005(    36)      2 -179.998(    55)      0
     18     18  H       17   1.096757(    17)      4  111.242(    37)      3  120.656(    56)      0
     19     19  H       17   1.094569(    18)      4  110.769(    38)      3   -0.105(    57)      0
     20     20  H       17   1.096722(    19)      4  111.243(    39)      3 -120.877(    58)      0
     21     21  O        5   1.500000(    20)      4  115.754(    40)      3 -179.998(    59)      0
     22     22  H       21   0.974436(    21)      5  112.627(    41)      4 -179.993(    60)      0
 ---------------------------------------------------------------------------------------------------
                         Z-Matrix orientation:                         
 ---------------------------------------------------------------------
 Center     Atomic      Atomic             Coordinates (Angstroms)
 Number     Number       Type             X           Y           Z
 ---------------------------------------------------------------------
      1          6           0        0.000000    0.000000    0.000000
      2          6           0        0.000000    0.000000    1.401724
      3          6           0        1.241488    0.000000    2.063361
      4          6           0        2.456750   -0.000177    1.366439
      5          6           0        2.407463   -0.000387   -0.038442
      6          6           0        1.193111   -0.000277   -0.743693
      7          1           0        1.267147    0.000235    3.150805
      8          1           0       -0.947242    0.000179   -0.534331
      9          6           0        1.171532   -0.000268   -2.257221
     10          1           0        0.141536   -0.000091   -2.626230
     11          1           0        1.663642   -0.888595   -2.680325
     12          1           0        1.663947    0.887899   -2.680306
     13          6           0       -1.295637   -0.000528    2.186489
     14          1           0       -1.370506    0.878733    2.839481
     15          1           0       -1.377295   -0.888347    2.827079
     16          1           0       -2.163344    0.007384    1.518195
     17          6           0        3.787241   -0.000228    2.078715
     18          1           0        4.383478   -0.879688    1.806822
     19          1           0        3.646388    0.001770    3.164181
     20          1           0        4.385230    0.877024    1.803694
     21          8           0        3.734787   -0.000625   -0.737163
     22          1           0        3.647561   -0.000662   -1.707687
 ---------------------------------------------------------------------
                    Distance matrix (angstroms):
                    1          2          3          4          5
     1  C    0.000000
     2  C    1.401724   0.000000
     3  C    2.408059   1.406789   0.000000
     4  C    2.811188   2.457003   1.400915   0.000000
     5  C    2.407769   2.805344   2.403554   1.405746   0.000000
     6  C    1.405914   2.454858   2.807470   2.459561   1.404289
     7  H    3.396062   2.159849   1.087747   2.144555   3.386978
     8  H    1.087556   2.155359   3.396843   3.898729   3.391158
     9  C    2.543135   3.841922   4.321148   3.844828   2.539784
    10  H    2.630041   4.030439   4.816861   4.615368   3.439632
[...]
     20          1           0        4.385230    0.877024    1.803694
     21          8           0        4.973623   -0.000848   -1.389302
     22          1           0        4.886397   -0.000885   -2.359826
 ---------------------------------------------------------------------
                    Distance matrix (angstroms):
                    1          2          3          4          5
     1  C    0.000000
     2  C    1.401724   0.000000
     3  C    2.408059   1.406789   0.000000
     4  C    2.811188   2.457003   1.400915   0.000000
     5  C    2.407769   2.805344   2.403554   1.405746   0.000000
     6  C    1.405914   2.454858   2.807470   2.459561   1.404289
     7  H    3.396062   2.159849   1.087747   2.144555   3.386978
     8  H    1.087556   2.155359   3.396843   3.898729   3.391158
     9  C    2.543135   3.841922   4.321148   3.844828   2.539784
    10  H    2.630041   4.030439   4.816861   4.615368   3.439632
    11  H    3.277414   4.496713   4.844623   4.218366   2.884740
    12  H    3.277366   4.496671   4.844503   4.218218   2.884668
    13  C    2.541537   1.514771   2.540110   3.840949   4.320100
    14  H    3.273089   2.172005   2.863048   4.194070   4.829942
    15  H    3.267794   2.172036   2.868876   4.197882   4.829501
    16  H    2.642920   2.166490   3.448208   4.622592   4.828608
    17  C    4.320214   3.847273   2.545800   1.509153   2.527082
    18  H    4.822171   4.489191   3.272883   2.163275   2.843028
    19  H    4.827856   4.049988   2.644873   2.155718   3.433910
    20  H    4.822108   4.490100   3.274098   2.163264   2.841633
    21  O    5.164018   5.703223   5.084261   3.732125   2.900000
    22  H    5.426385   6.166533   5.731487   4.448397   3.396165
                    6          7          8          9         10
     6  C    0.000000
     7  H    3.895202   0.000000
     8  H    2.150569   4.299273   0.000000
     9  C    1.513682   5.408872   2.730853   0.000000
    10  H    2.156329   5.885672   2.358279   1.094102   0.000000
    11  H    2.181984   5.911794   3.494557   1.100142   1.763284
    12  H    2.181975   5.911621   3.494506   1.100143   1.763289
    13  C    3.844455   2.738205   2.743035   5.082665   5.022721
    14  H    4.492652   2.797480   3.511924   5.762896   5.738692
    15  H    4.488437   2.808461   3.503355   5.756328   5.730133
    16  H    4.047467   3.799175   2.385753   5.037383   4.742234
    17  C    3.833470   2.738659   5.407711   5.063820   5.952114
    18  H    4.178149   3.506006   5.888271   5.254181   6.198363
    19  H    4.614114   2.379279   5.897494   5.959574   6.768519
    20  H    4.177135   3.507978   5.888164   5.252478   6.196975
    21  O    3.835242   5.860933   5.982276   3.899895   4.987891
    22  H    4.031407   6.592877   6.112592   3.716281   4.752334
                   11         12         13         14         15
    11  H    0.000000
    12  H    1.776494   0.000000
    13  C    5.764709   5.764906   0.000000
    14  H    6.541999   6.298892   1.097772   0.000000
    15  H    6.291168   6.537239   1.097837   1.767137   0.000000
    16  H    5.751188   5.748989   1.095261   1.770208   1.770137
    17  C    5.286523   5.286343   5.084020   5.287125   5.293509
    18  H    5.247101   5.536653   5.759289   6.104651   5.850428
    19  H    6.235566   6.234848   5.037807   5.103305   5.113056
    20  H    5.534517   5.245165   5.760979   5.848193   6.113146
    21  O    3.662077   3.662037   7.217333   7.674910   7.674613
    22  H    3.358109   3.358099   7.673755   8.182625   8.180795
                   16         17         18         19         20
    16  H    0.000000
    17  C    5.976931   0.000000
    18  H    6.612948   1.096757   0.000000
    19  H    6.038401   1.094569   1.778397   0.000000
    20  H    6.612232   1.096722   1.756716   1.778449   0.000000
    21  O    7.706484   3.665330   3.366874   4.742970   3.363344
    22  H    8.045990   4.572613   4.287910   5.661473   4.284482
                   21         22
    21  O    0.000000
    22  H    0.974436   0.000000
 Symmetry turned off by external request.
 Stoichiometry    C9H12O
 Framework group  C1[X(C9H12O)]
 Deg. of freedom    60
 Full point group                 C1      NOp   1
 Rotational constants (GHZ):           1.7300401           0.8929872           0.5955277
 Standard basis: 6-31++G(d,p) (6D, 7F)
   262 basis functions,   416 primitive gaussians,   262 cartesian basis functions
    37 alpha electrons       37 beta electrons
       nuclear repulsion energy       478.8837910521 Hartrees.
 NAtoms=   22 NActive=   22 NUniq=   22 SFac= 1.00D+00 NAtFMM=   60 NAOKFM=F Big=F
 Integral buffers will be    131072 words long.
 Raffenetti 2 integral format.
 Two-electron integral symmetry is turned off.
 One-electron integrals computed using PRISM.
 NBasis=   262 RedAO= T EigKep=  1.18D-06  NBF=   262
 NBsUse=   262 1.00D-06 EigRej= -1.00D+00 NBFU=   262
 Initial guess from the checkpoint file:  "C:\Users\Administrator\Desktop\dataset_dft\C8H6O3\C8H6O3.chk"
 B after Tr=     0.020569   -0.000003   -0.011584
         Rot=    1.000000    0.000000    0.000142    0.000000 Ang=   0.02 deg.
 ExpMin= 3.60D-02 ExpMax= 5.48D+03 ExpMxC= 8.25D+02 IAcc=3 IRadAn=         5 AccDes= 0.00D+00
 Harris functional with IExCor=  402 and IRadAn=       5 diagonalized for initial guess.
 HarFok:  IExCor=  402 AccDes= 0.00D+00 IRadAn=         5 IDoV= 1 UseB2=F ITyADJ=14
 ICtDFT=  3500011 ScaDFX=  1.000000  1.000000  1.000000  1.000000
 FoFCou: FMM=F IPFlag=           0 FMFlag=      100000 FMFlg1=           0
         NFxFlg=           0 DoJE=T BraDBF=F KetDBF=T FulRan=T
         wScrn=  0.000000 ICntrl=       500 IOpCl=  0 I1Cent=   200000004 NGrid=           0
         NMat0=    1 NMatS0=      1 NMatT0=    0 NMatD0=    1 NMtDS0=    0 NMtDT0=    0
 Symmetry not used in FoFCou.
 Requested convergence on RMS density matrix=1.00D-08 within 128 cycles.
 Requested convergence on MAX density matrix=1.00D-06.
 Requested convergence on             energy=1.00D-06.
 No special actions if energy rises.
 SCF Done:  E(RB3LYP) =  -425.265312416     A.U. after   13 cycles
            NFock= 13  Conv=0.67D-08     -V/T= 2.0108
 Variable Step   Value    
 -------- ---- -----------
    20      20    5.669178
 ---------------------------------------------------------------------------------------------------
                            Z-MATRIX (ANGSTROMS AND DEGREES)
   CD    Cent   Atom    N1       Length/X        N2       Alpha/Y        N3        Beta/Z          J
 ---------------------------------------------------------------------------------------------------
      1      1  C 
      2      2  C        1   1.401724(     1)
      3      3  C        2   1.406789(     2)      1  118.055(    22)
      4      4  C        3   1.400915(     3)      2  122.112(    23)      1   -0.009(    42)      0
      5      5  C        4   1.405746(     4)      3  117.824(    24)      2   -0.001(    43)      0
      6      6  C        5   1.404289(     5)      4  122.156(    25)      3    0.007(    44)      0
      7      7  H        3   1.087747(     6)      2  119.407(    26)      1  179.986(    45)      0
      8      8  H        1   1.087556(     7)      2  119.427(    27)      3 -179.989(    46)      0
      9      9  C        6   1.513682(     8)      5  120.963(    28)      4  179.989(    47)      0
     10     10  H        9   1.094102(     9)      6  110.528(    29)      5 -179.995(    48)      0
     11     11  H        9   1.100142(    10)      6  112.220(    30)      5   60.715(    49)      0
     12     12  H        9   1.100143(    11)      6  112.220(    31)      5  -60.706(    50)      0
     13     13  C        2   1.514771(    12)      1  121.203(    32)      6 -179.963(    51)      0
     14     14  H       13   1.097772(    13)      2  111.483(    33)      1 -120.596(    52)      0
     15     15  H       13   1.097837(    14)      2  111.482(    34)      1  119.653(    53)      0
     16     16  H       13   1.095261(    15)      2  111.193(    35)      1   -0.464(    54)      0
     17     17  C        4   1.509153(    16)      3  122.005(    36)      2 -179.998(    55)      0
     18     18  H       17   1.096757(    17)      4  111.242(    37)      3  120.656(    56)      0
     19     19  H       17   1.094569(    18)      4  110.769(    38)      3   -0.105(    57)      0
     20     20  H       17   1.096722(    19)      4  111.243(    39)      3 -120.877(    58)      0
     21     21  O        5   3.000000(    20)      4  115.754(    40)      3 -179.998(    59)      0
     22     22  H       21   0.974436(    21)      5  112.627(    41)      4 -179.993(    60)      0
 ---------------------------------------------------------------------------------------------------
                         Z-Matrix orientation:                         
 ---------------------------------------------------------------------
 Center     Atomic      Atomic             Coordinates (Angstroms)
 Number     Number       Type             X           Y           Z
 ---------------------------------------------------------------------
      1          6           0        0.000000    0.000000    0.000000
      2          6           0        0.000000    0.000000    1.401724
      3          6           0        1.241488    0.000000    2.063361
      4          6           0        2.456750   -0.000177    1.366439
      5          6           0        2.407463   -0.000387   -0.038442
      6          6           0        1.193111   -0.000277   -0.743693
      7          1           0        1.267147    0.000235    3.150805
      8          1           0       -0.947242    0.000179   -0.534331
      9          6           0        1.171532   -0.000268   -2.257221
     10          1           0        0.141536   -0.000091   -2.626230
     11          1           0        1.663642   -0.888595   -2.680325
     12          1           0        1.663947    0.887899   -2.680306
     13          6           0       -1.295637   -0.000528    2.186489
     14          1           0       -1.370506    0.878733    2.839481
     15          1           0       -1.377295   -0.888347    2.827079
     16          1           0       -2.163344    0.007384    1.518195
     17          6           0        3.787241   -0.000228    2.078715
     18          1           0        4.383478   -0.879688    1.806822
     19          1           0        3.646388    0.001770    3.164181
     20          1           0        4.385230    0.877024    1.803694
     21          8           0        5.062111   -0.000864   -1.435883
     22          1           0        4.974885   -0.000901   -2.406407
 ---------------------------------------------------------------------
                    Distance matrix (angstroms):
                    1          2          3          4          5
     1  C    0.000000
     2  C    1.401724   0.000000
     3  C    2.408059   1.406789   0.000000
     4  C    2.811188   2.457003   1.400915   0.000000
     5  C    2.407769   2.805344   2.403554   1.405746   0.000000
     6  C    1.405914   2.454858   2.807470   2.459561   1.404289
     7  H    3.396062   2.159849   1.087747   2.144555   3.386978
     8  H    1.087556   2.155359   3.396843   3.898729   3.391158
     9  C    2.543135   3.841922   4.321148   3.844828   2.539784
    10  H    2.630041   4.030439   4.816861   4.615368   3.439632
    11  H    3.277414   4.496713   4.844623   4.218366   2.884740
    12  H    3.277366   4.496671   4.844503   4.218218   2.884668
    13  C    2.541537   1.514771   2.540110   3.840949   4.320100
    14  H    3.273089   2.172005   2.863048   4.194070   4.829942
    15  H    3.267794   2.172036   2.868876   4.197882   4.829501
    16  H    2.642920   2.166490   3.448208   4.622592   4.828608
    17  C    4.320214   3.847273   2.545800   1.509153   2.527082
    18  H    4.822171   4.489191   3.272883   2.163275   2.843028
    19  H    4.827856   4.049988   2.644873   2.155718   3.433910
    20  H    4.822108   4.490100   3.274098   2.163264   2.841633
    21  O    5.261818   5.803187   5.180914   3.826345   3.000000
    22  H    5.526326   6.265089   5.823837   4.536009   3.492695
                    6          7          8          9         10
     6  C    0.000000
     7  H    3.895202   0.000000
     8  H    2.150569   4.299273   0.000000
     9  C    1.513682   5.408872   2.730853   0.000000
    10  H    2.156329   5.885672   2.358279   1.094102   0.000000
    11  H    2.181984   5.911794   3.494557   1.100142   1.763284
    12  H    2.181975   5.911621   3.494506   1.100143   1.763289
    13  C    3.844455   2.738205   2.743035   5.082665   5.022721
    14  H    4.492652   2.797480   3.511924   5.762896   5.738692
    15  H    4.488437   2.808461   3.503355   5.756328   5.730133
    16  H    4.047467   3.799175   2.385753   5.037383   4.742234
    17  C    3.833470   2.738659   5.407711   5.063820   5.952114
    18  H    4.178149   3.506006   5.888271   5.254181   6.198363
    19  H    4.614114   2.379279   5.897494   5.959574   6.768519
    20  H    4.177135   3.507978   5.888164   5.252478   6.196975
    21  O    3.930431   5.953105   6.076605   3.976330   5.062508
    22  H    4.131154   6.680564   6.210979   3.806278   4.838345
                   11         12         13         14         15
    11  H    0.000000
    12  H    1.776494   0.000000
    13  C    5.764709   5.764906   0.000000
    14  H    6.541999   6.298892   1.097772   0.000000
    15  H    6.291168   6.537239   1.097837   1.767137   0.000000
    16  H    5.751188   5.748989   1.095261   1.770208   1.770137
    17  C    5.286523   5.286343   5.084020   5.287125   5.293509
    18  H    5.247101   5.536653   5.759289   6.104651   5.850428
    19  H    6.235566   6.234848   5.037807   5.103305   5.113056
    20  H    5.534517   5.245165   5.760979   5.848193   6.113146
    21  O    3.726432   3.726393   7.317277   7.773737   7.773444
    22  H    3.439094   3.439084   7.772653   8.279921   8.278112
                   16         17         18         19         20
    16  H    0.000000
    17  C    5.976931   0.000000
    18  H    6.612948   1.096757   0.000000
    19  H    6.038401   1.094569   1.778397   0.000000
    20  H    6.612232   1.096722   1.756716   1.778449   0.000000
    21  O    7.806014   3.738675   3.427537   4.812990   3.423991
    22  H    8.145974   4.639700   4.344344   5.726811   4.340898
                   21         22
    21  O    0.000000
    22  H    0.974436   0.000000
 Symmetry turned off by external request.
 Stoichiometry    C9H12O
 Framework group  C1[X(C9H12O)]
 Deg. of freedom    60
 Full point group                 C1      NOp   1
 Rotational constants (GHZ):           1.7300392           0.8729002           0.5865265
 Standard basis: 6-31++G(d,p) (6D, 7F)
   262 basis functions,   416 primitive gaussians,   262 cartesian basis functions
    37 alpha electrons       37 beta electrons
       nuclear repulsion energy       477.4000688833 Hartrees.
 NAtoms=   22 NActive=   22 NUniq=   22 SFac= 1.00D+00 NAtFMM=   60 NAOKFM=F Big=F
 Integral buffers will be    131072 words long.
 Raffenetti 2 integral format.
 Two-electron integral symmetry is turned off.
 One-electron integrals computed using PRISM.
 NBasis=   262 RedAO= T EigKep=  1.18D-06  NBF=   262
 NBsUse=   262 1.00D-06 EigRej= -1.00D+00 NBFU=   262
 Initial guess from the checkpoint file:  "C:\Users\Administrator\Desktop\dataset_dft\C8H6O3\C8H6O3.chk"
 B after Tr=     0.020563   -0.000003   -0.011578
         Rot=    1.000000    0.000000    0.000140    0.000000 Ang=   0.02 deg.
 ExpMin= 3.60D-02 ExpMax= 5.48D+03 ExpMxC= 8.25D+02 IAcc=3 IRadAn=         5 AccDes= 0.00D+00
 Harris functional with IExCor=  402 and IRadAn=       5 diagonalized for initial guess.
 HarFok:  IExCor=  402 AccDes= 0.00D+00 IRadAn=         5 IDoV= 1 UseB2=F ITyADJ=14
 ICtDFT=  3500011 ScaDFX=  1.000000  1.000000  1.000000  1.000000
 FoFCou: FMM=F IPFlag=           0 FMFlag=      100000 FMFlg1=           0
         NFxFlg=           0 DoJE=T BraDBF=F KetDBF=T FulRan=T
         wScrn=  0.000000 ICntrl=       500 IOpCl=  0 I1Cent=   200000004 NGrid=           0
         NMat0=    1 NMatS0=      1 NMatT0=    0 NMatD0=    1 NMtDS0=    0 NMtDT0=    0
 Symmetry not used in FoFCou.
 Requested convergence on RMS density matrix=1.00D-08 within 128 cycles.
 Requested convergence on MAX density matrix=1.00D-06.
 Requested convergence on             energy=1.00D-06.
 No special actions if energy rises.
 SCF Done:  E(RB3LYP) =  -425.259122770     A.U. after   13 cycles
            NFock= 13  Conv=0.89D-08     -V/T= 2.0108
 Scan completed.
 
 Summary of the potential surface scan:
   N      B20         SCF    
 ----  ---------  -----------
    1     1.0000   -425.21738
    2     1.1000   -425.35625
    3     1.2000   -425.42378
    4     1.3000   -425.45091
    5     1.4000   -425.45540
    6     1.5000   -425.44756
    7     1.6000   -425.43339
    8     1.7000   -425.41638
    9     1.8000   -425.39848
   10     1.9000   -425.38083
   11     2.0000   -425.36400
   12     2.1000   -425.34832
   13     2.2000   -425.33389
   14     2.3000   -425.32079
   15     2.4000   -425.30891
   16     2.5000   -425.29821
   17     2.6000   -425.28860
   18     2.7000   -425.27997
   19     2.8000   -425.27224
   20     2.9000   -425.26531
   21     3.0000   -425.25912
 ----  ---------  -----------
  
 1|1|UNPC-BF-202112021916|Scan|RB3LYP|6-31++G(d,p)|C9H12O1|ADMINISTRATO
 R|21-Mar-2023|1||# scan b3lyp/6-31++g(d,p) nosymm||Title Card Required
 ||0,1|C|C,1,B1|C,2,B2,1,A1|C,3,B3,2,A2,1,D1,0|C,4,B4,3,A3,2,D2,0|C,5,B
 5,4,A4,3,D3,0|H,3,B6,2,A5,1,D4,0|H,1,B7,2,A6,3,D5,0|C,6,B8,5,A7,4,D6,0
 |H,9,B9,6,A8,5,D7,0|H,9,B10,6,A9,5,D8,0|H,9,B11,6,A10,5,D9,0|C,2,B12,1
 ,A11,6,D10,0|H,13,B13,2,A12,1,D11,0|H,13,B14,2,A13,1,D12,0|H,13,B15,2,
 A14,1,D13,0|C,4,B16,3,A15,2,D14,0|H,17,B17,4,A16,3,D15,0|H,17,B18,4,A1
 7,3,D16,0|H,17,B19,4,A18,3,D17,0|O,5,B20,4,A19,3,D18,0|H,21,B21,5,A20,
 4,D19,0||B1=1.40172372|B2=1.4067889|B3=1.40091456|B4=1.40574604|B5=1.4
 0428866|B6=1.0877472|B7=1.0875556|B8=1.51368221|B9=1.09410205|B10=1.10
 014242|B11=1.10014305|B12=1.5147712|B13=1.0977718|B14=1.09783685|B15=1
 .09526065|B16=1.50915325|B17=1.09675659|B18=1.09456869|B19=1.0967215|B
 20=1.,s,20,0.1|B21=0.97443585|A1=118.05489243|A2=122.11195318|A3=117.8
 2388104|A4=122.15571465|A5=119.40658646|A6=119.42693933|A7=120.9632841
 3|A8=110.52751361|A9=112.22032978|A10=112.2195867|A11=121.2032423|A12=
 111.48295131|A13=111.48150097|A14=111.19313304|A15=122.00457753|A16=11
 1.2415396|A17=110.7686959|A18=111.24276989|A19=115.75361474|A20=112.62
 722068|D1=-0.00852575|D2=-0.00133353|D3=0.00703282|D4=179.98577911|D5=
 -179.9891797|D6=179.98938788|D7=-179.99524881|D8=60.71536748|D9=-60.70
 593948|D10=-179.96336306|D11=-120.59576262|D12=119.65332994|D13=-0.463
 77751|D14=-179.99769154|D15=120.65588323|D16=-0.10528748|D17=-120.8765
 0648|D18=-179.99764726|D19=-179.99345926||Version=EM64W-G16RevA.03|HF=
 -425.2173792,-425.3562512,-425.4237805,-425.4509062,-425.4553953,-425.
 4475577,-425.4333945,-425.4163769,-425.3984849,-425.3808271,-425.36400
 39,-425.3483171,-425.3338939,-425.3207932,-425.308914,-425.2982146,-42
 5.2886,-425.2799716,-425.2722368,-425.2653124,-425.2591228|RMSD=2.563e
 -009,5.786e-009,4.686e-009,4.023e-009,4.551e-009,2.447e-009,2.191e-009
 ,8.705e-009,7.539e-009,7.367e-009,7.324e-009,6.403e-009,6.270e-009,3.7
 70e-009,8.753e-009,5.023e-009,5.954e-009,5.775e-009,5.803e-009,6.717e-
 009,8.938e-009|PG=C01 [X(C9H12O1)]||@


 THE ONLY TROUBLE WITH A SURE THING IS THE UNCERTAINTY.
     -- FROM A TEABAG (BELONGING TO W.H.?)
 Job cpu time:       0 days  0 hours 20 minutes 33.0 seconds.
 Elapsed time:       0 days  0 hours 20 minutes 11.6 seconds.
 File lengths (MBytes):  RWF=     52 Int=      0 D2E=      0 Chk=      7 Scr=      1
 Normal termination of Gaussian 16 at Tue Mar 21 20:44:42 2023.
