 Entering Link 1 = I:\G16W\l1.exe PID=      4600.
  
 Copyright (c) 1988,1990,1992,1993,1995,1998,2003,2009,2016,
            Gaussian, Inc.  All Rights Reserved.
  
 This is part of the Gaussian(R) 16 program.  It is based on
 the Gaussian(R) 09 system (copyright 2009, Gaussian, Inc.),
 the Gaussian(R) 03 system (copyright 2003, Gaussian, Inc.),
 the Gaussian(R) 98 system (copyright 1998, Gaussian, Inc.),
 the Gaussian(R) 94 system (copyright 1995, Gaussian, Inc.),
 the Gaussian 92(TM) system (copyright 1992, Gaussian, Inc.),
 the Gaussian 90(TM) system (copyright 1990, Gaussian, Inc.),
 the Gaussian 88(TM) system (copyright 1988, Gaussian, Inc.),
 the Gaussian 86(TM) system (copyright 1986, Carnegie Mellon
 University), and the Gaussian 82(TM) system (copyright 1983,
 Carnegie Mellon University). Gaussian is a federally registered
 trademark of Gaussian, Inc.
  
 This software contains proprietary and confidential information,
 including trade secrets, belonging to Gaussian, Inc.
  
 This software is provided under written license and may be
 used, copied, transmitted, or stored only in accord with that
 written license.
  
 The following legend is applicable only to US Government
 contracts under FAR:
  
                    RESTRICTED RIGHTS LEGEND
  
 Use, reproduction and disclosure by the US Government is
 subject to restrictions as set forth in subparagraphs (a)
 and (c) of the Commercial Computer Software - Restricted
 Rights clause in FAR 52.227-19.
  
 Gaussian, Inc.
 340 Quinnipiac St., Bldg. 40, Wallingford CT 06492
  
  
 ---------------------------------------------------------------
 Warning -- This program may not be used in any manner that
 competes with the business of Gaussian, Inc. or will provide
 assistance to any competitor of Gaussian, Inc.  The licensee
 of this program is prohibited from giving any competitor of
 Gaussian, Inc. access to this program.  By using this program,
 the user acknowledges that Gaussian, Inc. is engaged in the
 business of creating and licensing software in the field of
 computational chemistry and represents and warrants to the
 licensee that it is not a competitor of Gaussian, Inc. and that
 it will not use this program in any manner prohibited above.
 ---------------------------------------------------------------
  

 Cite this work as:
 Gaussian 16, Revision A.03,
 M. J. Frisch, G. W. Trucks, H. B. Schlegel, G. E. Scuseria, 
 M. A. Robb, J. R. Cheeseman, G. Scalmani, V. Barone, 
 G. A. Petersson, H. Nakatsuji, X. Li, M. Caricato, A. V. Marenich, 
 J. Bloino, B. G. Janesko, R. Gomperts, B. Mennucci, H. P. Hratchian, 
 J. V. Ortiz, A. F. Izmaylov, J. L. Sonnenberg, D. Williams-Young, 
 F. Ding, F. Lipparini, F. Egidi, J. Goings, B. Peng, A. Petrone, 
 T. Henderson, D. Ranasinghe, V. G. Zakrzewski, J. Gao, N. Rega, 
 G. Zheng, W. Liang, M. Hada, M. Ehara, K. Toyota, R. Fukuda, 
 J. Hasegawa, M. Ishida, T. Nakajima, Y. Honda, O. Kitao, H. Nakai, 
 T. Vreven, K. Throssell, J. A. Montgomery, Jr., J. E. Peralta, 
 F. Ogliaro, M. J. Bearpark, J. J. Heyd, E. N. Brothers, K. N. Kudin, 
 V. N. Staroverov, T. A. Keith, R. Kobayashi, J. Normand, 
 K. Raghavachari, A. P. Rendell, J. C. Burant, S. S. Iyengar, 
 J. Tomasi, M. Cossi, J. M. Millam, M. Klene, C. Adamo, R. Cammi, 
 J. W. Ochterski, R. L. Martin, K. Morokuma, O. Farkas, 
 J. B. Foresman, and D. J. Fox, Gaussian, Inc., Wallingford CT, 2016.
 
 ******************************************
 Gaussian 16:  EM64W-G16RevA.03 17-Dec-2016
                21-Mar-2023 
 ******************************************
 %nprocshared=10
 Will use up to   10 processors via shared memory.
 %mem=150MW
 %chk=C:\Users\Administrator\Desktop\dataset_dft\C8H6O3\C8H6O3.chk
 --------------------------------
 # scan b3lyp/6-31++g(d,p) nosymm
 --------------------------------
 1/38=1,60=1,172=1/1,8;
 2/12=2,15=1,17=6,18=5,29=3,40=1/2;
 3/5=1,6=6,7=1111,11=2,25=1,30=1,74=-5/1,2,3;
 4//1;
 5/5=2,38=5/2;
 6/7=2,8=2,9=2,10=2,18=1,28=1/1;
 1/60=1/8(1);
 99/9=1/99;
 2/15=1,29=3/2;
 3/5=1,6=6,7=1111,11=2,25=1,30=1,74=-5/1,2,3;
 4/5=5,16=3,69=1/1;
 5/5=2,38=5/2;
 1/60=1/8(-4);
 99/9=1/99;
 -------------------
 Title Card Required
 -------------------
 Symbolic Z-matrix:
 Charge =  0 Multiplicity = 1
 C(PDBName=C,ResName=MOL,ResNum=1)
 C(PDBName=C,ResName=MOL,ResNum=1) 1    B1
 C(PDBName=C,ResName=MOL,ResNum=1) 2    B2       1    A1
 C(PDBName=C,ResName=MOL,ResNum=1) 3    B3       2    A2       1    D1       0
 C(PDBName=C,ResName=MOL,ResNum=1) 4    B4       3    A3       2    D2       0
 C(PDBName=C,ResName=MOL,ResNum=1) 5    B5       4    A4       3    D3       0
 H(PDBName=H,ResName=MOL,ResNum=1) 3    B6       2    A5       1    D4       0
 H(PDBName=H,ResName=MOL,ResNum=1) 1    B7       2    A6       3    D5       0
 C(PDBName=C,ResName=MOL,ResNum=1) 6    B8       5    A7       4    D6       0
 H(PDBName=H,ResName=MOL,ResNum=1) 9    B9       6    A8       5    D7       0
 H(PDBName=H,ResName=MOL,ResNum=1) 9    B10      6    A9       5    D8       0
 H(PDBName=H,ResName=MOL,ResNum=1) 9    B11      6    A10      5    D9       0
 C(PDBName=C,ResName=MOL,ResNum=1) 2    B12      1    A11      6    D10      0
 H(PDBName=H,ResName=MOL,ResNum=1) 13   B13      2    A12      1    D11      0
 H(PDBName=H,ResName=MOL,ResNum=1) 13   B14      2    A13      1    D12      0
 H(PDBName=H,ResName=MOL,ResNum=1) 13   B15      2    A14      1    D13      0
 C(PDBName=C,ResName=MOL,ResNum=1) 4    B16      3    A15      2    D14      0
 H(PDBName=H,ResName=MOL,ResNum=1) 17   B17      4    A16      3    D15      0
 H(PDBName=H,ResName=MOL,ResNum=1) 17   B18      4    A17      3    D16      0
 H(PDBName=H,ResName=MOL,ResNum=1) 17   B19      4    A18      3    D17      0
 O(PDBName=O,ResName=MOL,ResNum=1) 5    B20      4    A19      3    D18      0
 H(PDBName=H,ResName=MOL,ResNum=1) 21   B21      5    A20      4    D19      0
       Variables:
  B1                    1.40172                  
  B2                    1.40679                  
  B3                    1.40091                  
  B4                    1.40575                  
  B5                    1.40429                  
  B6                    1.08775                  
  B7                    0.5    Scan 20    0.1    
  B8                    1.51368                  
  B9                    1.0941                   
  B10                   1.10014                  
  B11                   1.10014                  
  B12                   1.51477                  
  B13                   1.09777                  
  B14                   1.09784                  
  B15                   1.09526                  
  B16                   1.50915                  
  B17                   1.09676                  
  B18                   1.09457                  
  B19                   1.09672                  
  B20                   1.40547                  
  B21                   0.97444                  
  A1                  118.05489                  
  A2                  122.11195                  
  A3                  117.82388                  
  A4                  122.15571                  
  A5                  119.40659                  
  A6                  119.42694                  
  A7                  120.96328                  
  A8                  110.52751                  
  A9                  112.22033                  
  A10                 112.21959                  
  A11                 121.20324                  
  A12                 111.48295                  
  A13                 111.4815                   
  A14                 111.19313                  
  A15                 122.00458                  
  A16                 111.24154                  
  A17                 110.7687                   
  A18                 111.24277                  
  A19                 115.75361                  
  A20                 112.62722                  
  D1                   -0.00853                  
  D2                   -0.00133                  
  D3                    0.00703                  
  D4                  179.98578                  
  D5                 -179.98918                  
  D6                  179.98939                  
  D7                 -179.99525                  
  D8                   60.71537                  
  D9                  -60.70594                  
  D10                -179.96336                  
  D11                -120.59576                  
  D12                 119.65333                  
  D13                  -0.46378                  
  D14                -179.99769                  
  D15                 120.65588                  
  D16                  -0.10529                  
  D17                -120.87651                  
  D18                -179.99765                  
  D19                -179.99346                  
 
 Center=      1.36280559     -0.00030524      0.57174249
 Residue   1 PDB Number     1_0 MOL charge    0.00000000 layers R        AvRTP=      0.00000000      0.00000000    180.00000000
 Scan the potential surface.
 Variable   Value     No. Steps Step-Size
 -------- ----------- --------- ---------
     7       0.500000      20      0.1000
 A total of     21 points will be computed.
 ---------------------------------------------------------------------------------------------------
                            Z-MATRIX (ANGSTROMS AND DEGREES)
   CD    Cent   Atom    N1       Length/X        N2       Alpha/Y        N3        Beta/Z          J
 ---------------------------------------------------------------------------------------------------
      1      1  C 
      2      2  C        1   1.401724(     1)
      3      3  C        2   1.406789(     2)      1  118.055(    22)
      4      4  C        3   1.400915(     3)      2  122.112(    23)      1   -0.009(    42)      0
      5      5  C        4   1.405746(     4)      3  117.824(    24)      2   -0.001(    43)      0
      6      6  C        5   1.404289(     5)      4  122.156(    25)      3    0.007(    44)      0
      7      7  H        3   1.087747(     6)      2  119.407(    26)      1  179.986(    45)      0
      8      8  H        1   0.500000(     7)      2  119.427(    27)      3 -179.989(    46)      0
      9      9  C        6   1.513682(     8)      5  120.963(    28)      4  179.989(    47)      0
     10     10  H        9   1.094102(     9)      6  110.528(    29)      5 -179.995(    48)      0
     11     11  H        9   1.100142(    10)      6  112.220(    30)      5   60.715(    49)      0
     12     12  H        9   1.100143(    11)      6  112.220(    31)      5  -60.706(    50)      0
     13     13  C        2   1.514771(    12)      1  121.203(    32)      6 -179.963(    51)      0
     14     14  H       13   1.097772(    13)      2  111.483(    33)      1 -120.596(    52)      0
     15     15  H       13   1.097837(    14)      2  111.482(    34)      1  119.653(    53)      0
     16     16  H       13   1.095261(    15)      2  111.193(    35)      1   -0.464(    54)      0
     17     17  C        4   1.509153(    16)      3  122.005(    36)      2 -179.998(    55)      0
     18     18  H       17   1.096757(    17)      4  111.242(    37)      3  120.656(    56)      0
     19     19  H       17   1.094569(    18)      4  110.769(    38)      3   -0.105(    57)      0
     20     20  H       17   1.096722(    19)      4  111.243(    39)      3 -120.877(    58)      0
     21     21  O        5   1.405465(    20)      4  115.754(    40)      3 -179.998(    59)      0
     22     22  H       21   0.974436(    21)      5  112.627(    41)      4 -179.993(    60)      0
 ---------------------------------------------------------------------------------------------------
                         Z-Matrix orientation:                         
 ---------------------------------------------------------------------
 Center     Atomic      Atomic             Coordinates (Angstroms)
 Number     Number       Type             X           Y           Z
 ---------------------------------------------------------------------
      1          6           0        0.000000    0.000000    0.000000
      2          6           0        0.000000    0.000000    1.401724
      3          6           0        1.241488    0.000000    2.063361
      4          6           0        2.456750   -0.000177    1.366439
      5          6           0        2.407463   -0.000387   -0.038442
      6          6           0        1.193111   -0.000277   -0.743693
      7          1           0        1.267147    0.000235    3.150805
      8          1           0       -0.435491    0.000082   -0.245657
      9          6           0        1.171532   -0.000268   -2.257221
     10          1           0        0.141536   -0.000091   -2.626230
     11          1           0        1.663642   -0.888595   -2.680325
     12          1           0        1.663947    0.887899   -2.680306
     13          6           0       -1.295637   -0.000528    2.186489
     14          1           0       -1.370506    0.878733    2.839481
     15          1           0       -1.377295   -0.888347    2.827079
     16          1           0       -2.163344    0.007384    1.518195
     17          6           0        3.787241   -0.000228    2.078715
     18          1           0        4.383478   -0.879688    1.806822
     19          1           0        3.646388    0.001770    3.164181
     20          1           0        4.385230    0.877024    1.803694
     21          8           0        3.651135   -0.000610   -0.693127
     22          1           0        3.563909   -0.000647   -1.663651
 ---------------------------------------------------------------------
                    Distance matrix (angstroms):
                    1          2          3          4          5
     1  C    0.000000
     2  C    1.401724   0.000000
     3  C    2.408059   1.406789   0.000000
     4  C    2.811188   2.457003   1.400915   0.000000
     5  C    2.407769   2.805344   2.403554   1.405746   0.000000
     6  C    1.405914   2.454858   2.807470   2.459561   1.404289
     7  H    3.396062   2.159849   1.087747   2.144555   3.386978
     8  H    0.500000   1.703970   2.853738   3.311180   2.850496
     9  C    2.543135   3.841922   4.321148   3.844828   2.539784
    10  H    2.630041   4.030439   4.816861   4.615368   3.439632
    11  H    3.277414   4.496713   4.844623   4.218366   2.884740
    12  H    3.277366   4.496671   4.844503   4.218218   2.884668
    13  C    2.541537   1.514771   2.540110   3.840949   4.320100
    14  H    3.273089   2.172005   2.863048   4.194070   4.829942
    15  H    3.267794   2.172036   2.868876   4.197882   4.829501
    16  H    2.642920   2.166490   3.448208   4.622592   4.828608
    17  C    4.320214   3.847273   2.545800   1.509153   2.527082
    18  H    4.822171   4.489191   3.272883   2.163275   2.843028
    19  H    4.827856   4.049988   2.644873   2.155718   3.433910
    20  H    4.822108   4.490100   3.274098   2.163264   2.841633
    21  O    3.716344   4.209416   3.661233   2.380834   1.405465
    22  H    3.933088   4.700848   4.391385   3.226027   1.994661
                    6          7          8          9         10
     6  C    0.000000
     7  H    3.895202   0.000000
     8  H    1.703052   3.799333   0.000000
     9  C    1.513682   5.408872   2.574668   0.000000
    10  H    2.156329   5.885672   2.449508   1.094102   0.000000
    11  H    2.181984   5.911794   3.335223   1.100142   1.763284
    12  H    2.181975   5.911621   3.335173   1.100143   1.763289
    13  C    3.844455   2.738205   2.579764   5.082665   5.022721
    14  H    4.492652   2.797480   3.341310   5.762896   5.738692
    15  H    4.488437   2.808461   3.334367   5.756328   5.730133
    16  H    4.047467   3.799175   2.469150   5.037383   4.742234
    17  C    3.833470   2.738659   4.820184   5.063820   5.952114
    18  H    4.178149   3.506006   5.311227   5.254181   6.198363
    19  H    4.614114   2.379279   5.318716   5.959574   6.768519
    20  H    4.177135   3.507978   5.311141   5.252478   6.196975
    21  O    2.458543   4.523187   4.111052   2.931692   4.006765
    22  H    2.543031   5.334239   4.243337   2.464912   3.555164
                   11         12         13         14         15
    11  H    0.000000
    12  H    1.776494   0.000000
    13  C    5.764709   5.764906   0.000000
    14  H    6.541999   6.298892   1.097772   0.000000
    15  H    6.291168   6.537239   1.097837   1.767137   0.000000
    16  H    5.751188   5.748989   1.095261   1.770208   1.770137
    17  C    5.286523   5.286343   5.084020   5.287125   5.293509
    18  H    5.247101   5.536653   5.759289   6.104651   5.850428
    19  H    6.235566   6.234848   5.037807   5.103305   5.113056
    20  H    5.534517   5.245165   5.760979   5.848193   6.113146
    21  O    2.947473   2.947413   5.723875   6.202374   6.202019
    22  H    2.330899   2.330870   6.199900   6.737949   6.735738
                   16         17         18         19         20
    16  H    0.000000
    17  C    5.976931   0.000000
    18  H    6.612948   1.096757   0.000000
    19  H    6.038401   1.094569   1.778397   0.000000
    20  H    6.612232   1.096722   1.756716   1.778449   0.000000
    21  O    6.220786   2.775182   2.749336   3.857312   2.746498
    22  H    6.551766   3.749024   3.672682   4.828538   3.669790
                   21         22
    21  O    0.000000
    22  H    0.974436   0.000000
 Symmetry turned off by external request.
 Stoichiometry    C9H12O
 Framework group  C1[X(C9H12O)]
 Deg. of freedom    60
 Full point group                 C1      NOp   1
 Rotational constants (GHZ):           1.7416848           1.2450129           0.7360052
 Standard basis: 6-31++G(d,p) (6D, 7F)
   262 basis functions,   416 primitive gaussians,   262 cartesian basis functions
    37 alpha electrons       37 beta electrons
       nuclear repulsion energy       516.9088036500 Hartrees.
 NAtoms=   22 NActive=   22 NUniq=   22 SFac= 1.00D+00 NAtFMM=   60 NAOKFM=F Big=F
 Integral buffers will be    131072 words long.
 Raffenetti 2 integral format.
 Two-electron integral symmetry is turned off.
 One-electron integrals computed using PRISM.
 NBasis=   262 RedAO= T EigKep=  1.32D-06  NBF=   262
 NBsUse=   261 1.00D-06 EigRej=  7.32D-07 NBFU=   261
 ExpMin= 3.60D-02 ExpMax= 5.48D+03 ExpMxC= 8.25D+02 IAcc=3 IRadAn=         5 AccDes= 0.00D+00
 Harris functional with IExCor=  402 and IRadAn=       5 diagonalized for initial guess.
 HarFok:  IExCor=  402 AccDes= 0.00D+00 IRadAn=         5 IDoV= 1 UseB2=F ITyADJ=14
 ICtDFT=  3500011 ScaDFX=  1.000000  1.000000  1.000000  1.000000
 FoFCou: FMM=F IPFlag=           0 FMFlag=      100000 FMFlg1=           0
         NFxFlg=           0 DoJE=T BraDBF=F KetDBF=T FulRan=T
         wScrn=  0.000000 ICntrl=       500 IOpCl=  0 I1Cent=   200000004 NGrid=           0
         NMat0=    1 NMatS0=      1 NMatT0=    0 NMatD0=    1 NMtDS0=    0 NMtDT0=    0
 Symmetry not used in FoFCou.
 Requested convergence on RMS density matrix=1.00D-08 within 128 cycles.
 Requested convergence on MAX density matrix=1.00D-06.
 Requested convergence on             energy=1.00D-06.
 No special actions if energy rises.
 SCF Done:  E(RB3LYP) =  -424.525659726     A.U. after   14 cycles
            NFock= 14  Conv=0.97D-08     -V/T= 2.0032

 **********************************************************************

            Population analysis using the SCF density.

 **********************************************************************

 Alpha  occ. eigenvalues --  -19.18385 -10.24467 -10.21207 -10.20256 -10.19989
 Alpha  occ. eigenvalues --  -10.19768 -10.19535 -10.18425 -10.18424 -10.17976
 Alpha  occ. eigenvalues --   -1.04780  -0.86242  -0.79689  -0.77725  -0.72035
 Alpha  occ. eigenvalues --   -0.70262  -0.68121  -0.61138  -0.58418  -0.54657
 Alpha  occ. eigenvalues --   -0.50442  -0.46186  -0.44096  -0.43970  -0.41716
 Alpha  occ. eigenvalues --   -0.41113  -0.40990  -0.40708  -0.40173  -0.38262
 Alpha  occ. eigenvalues --   -0.37326  -0.36613  -0.34515  -0.33744  -0.32101
 Alpha  occ. eigenvalues --   -0.24171  -0.21588
 Alpha virt. eigenvalues --   -0.01670  -0.00937  -0.00068   0.00200   0.00720
 Alpha virt. eigenvalues --    0.02210   0.02508   0.02760   0.03852   0.04457
 Alpha virt. eigenvalues --    0.04525   0.05240   0.05467   0.06861   0.07457
 Alpha virt. eigenvalues --    0.08062   0.08984   0.09521   0.10250   0.10904
 Alpha virt. eigenvalues --    0.11932   0.12015   0.12136   0.12610   0.13088
 Alpha virt. eigenvalues --    0.13269   0.13604   0.13931   0.14273   0.14507
 Alpha virt. eigenvalues --    0.15863   0.16195   0.16272   0.16589   0.17133
 Alpha virt. eigenvalues --    0.17320   0.17951   0.18010   0.18373   0.18641
 Alpha virt. eigenvalues --    0.19726   0.20106   0.20604   0.21659   0.22160
 Alpha virt. eigenvalues --    0.22473   0.23420   0.24833   0.25391   0.26066
 Alpha virt. eigenvalues --    0.26876   0.27098   0.27412   0.27843   0.28197
 Alpha virt. eigenvalues --    0.29312   0.30129   0.30455   0.31822   0.32207
 Alpha virt. eigenvalues --    0.32938   0.33123   0.34036   0.34993   0.35999
 Alpha virt. eigenvalues --    0.38835   0.40527   0.41098   0.41613   0.42277
 Alpha virt. eigenvalues --    0.43485   0.44930   0.46502   0.49824   0.57905
 Alpha virt. eigenvalues --    0.60939   0.67136   0.68230   0.68612   0.70033
 Alpha virt. eigenvalues --    0.70922   0.71773   0.71858   0.73488   0.75190
 Alpha virt. eigenvalues --    0.76955   0.77278   0.77730   0.78018   0.78734
 Alpha virt. eigenvalues --    0.80123   0.81597   0.81793   0.83217   0.84839
 Alpha virt. eigenvalues --    0.88839   0.91003   0.91803   0.96294   0.97006
 Alpha virt. eigenvalues --    0.97664   1.00798   1.04764   1.05779   1.08118
 Alpha virt. eigenvalues --    1.09788   1.12208   1.13823   1.16019   1.16642
 Alpha virt. eigenvalues --    1.18004   1.18411   1.19487   1.20541   1.22828
 Alpha virt. eigenvalues --    1.23353   1.24898   1.25191   1.26641   1.28534
 Alpha virt. eigenvalues --    1.30881   1.31526   1.32627   1.34823   1.37492
 Alpha virt. eigenvalues --    1.41804   1.44411   1.44671   1.49362   1.55507
 Alpha virt. eigenvalues --    1.59876   1.60416   1.69282   1.69909   1.73157
 Alpha virt. eigenvalues --    1.73443   1.73930   1.75561   1.78889   1.80884
 Alpha virt. eigenvalues --    1.81916   1.83071   1.85289   1.86233   1.93304
 Alpha virt. eigenvalues --    1.94895   1.97069   1.99977   2.01753   2.02911
 Alpha virt. eigenvalues --    2.03127   2.04639   2.05362   2.09251   2.11945
 Alpha virt. eigenvalues --    2.13429   2.13807   2.14087   2.15571   2.18748
 Alpha virt. eigenvalues --    2.19783   2.20223   2.25580   2.27648   2.29310
 Alpha virt. eigenvalues --    2.29356   2.33776   2.34376   2.35578   2.39407
 Alpha virt. eigenvalues --    2.42516   2.44069   2.46965   2.48936   2.53271
 Alpha virt. eigenvalues --    2.55620   2.57670   2.57725   2.62609   2.63442
 Alpha virt. eigenvalues --    2.68824   2.69464   2.71906   2.72405   2.73948
 Alpha virt. eigenvalues --    2.75550   2.78278   2.82453   2.84398   2.85571
 Alpha virt. eigenvalues --    2.85801   2.87148   2.87446   2.91732   2.99510
 Alpha virt. eigenvalues --    3.06719   3.09190   3.16863   3.24090   3.25605
 Alpha virt. eigenvalues --    3.27225   3.30402   3.37922   3.41036   3.43558
 Alpha virt. eigenvalues --    3.44869   3.46966   3.50262   3.50360   3.51288
 Alpha virt. eigenvalues --    3.53135   3.70418   4.06690   4.29179   4.32893
 Alpha virt. eigenvalues --    4.35684   4.40817   4.42667   4.49976   4.58885
 Alpha virt. eigenvalues --    4.60258   4.66063   4.85395  10.18558
          Condensed to atoms (all electrons):
               1          2          3          4          5          6
     1  C   18.302187  -1.470530  -2.825152   1.046925  -4.048660  -2.371017
     2  C   -1.470530   8.828249  -1.071425  -0.194181   0.385098   0.422219
     3  C   -2.825152  -1.071425  11.615488  -2.464636  -1.040802   2.277103
     4  C    1.046925  -0.194181  -2.464636  10.732722   1.789207  -3.420582
     5  C   -4.048660   0.385098  -1.040802   1.789207  10.383355  -1.031695
     6  C   -2.371017   0.422219   2.277103  -3.420582  -1.031695  11.595544
     7  H    0.192348   0.046011   0.467045  -0.329603  -0.134669   0.125203
     8  H   -4.808072   0.136223   0.286013   0.485687   1.023452   0.085019
     9  C    0.629057  -0.679920   0.831284  -0.853427  -1.132089  -0.761545
    10  H   -0.138838  -0.008795  -0.026398   0.025030   0.112945  -0.098878
    11  H    0.006135  -0.014308   0.022479  -0.032233  -0.037494  -0.132221
    12  H    0.005184  -0.014058   0.023261  -0.032633  -0.037818  -0.132692
    13  C    0.449351  -0.416241  -0.864568   0.144550  -0.063497  -0.447670
    14  H    0.018216  -0.118348  -0.020465   0.015974  -0.001486  -0.014817
    15  H    0.017952  -0.119453  -0.021778   0.016512  -0.001149  -0.014188
    16  H   -0.118057  -0.090064   0.046718  -0.006864   0.004534   0.007767
    17  C    0.637229  -0.053224  -0.258763  -0.857883  -0.778417  -0.366995
    18  H    0.021362  -0.018521   0.033427  -0.124604  -0.059322  -0.012361
    19  H   -0.041590  -0.005777  -0.000640  -0.074085   0.056389  -0.009882
    20  H    0.021295  -0.017653   0.031045  -0.123612  -0.058143  -0.012862
    21  O    0.093636  -0.045447   0.071472  -0.495048   0.080958   0.203419
    22  H    0.048137   0.002479  -0.037350   0.176405   0.048309  -0.199015
               7          8          9         10         11         12
     1  C    0.192348  -4.808072   0.629057  -0.138838   0.006135   0.005184
     2  C    0.046011   0.136223  -0.679920  -0.008795  -0.014308  -0.014058
     3  C    0.467045   0.286013   0.831284  -0.026398   0.022479   0.023261
     4  C   -0.329603   0.485687  -0.853427   0.025030  -0.032233  -0.032633
     5  C   -0.134669   1.023452  -1.132089   0.112945  -0.037494  -0.037818
     6  C    0.125203   0.085019  -0.761545  -0.098878  -0.132221  -0.132692
     7  H    0.731671  -0.055861   0.042615  -0.001259   0.000524   0.000534
     8  H   -0.055861   5.989950  -0.715750   0.074262  -0.004072  -0.004272
     9  C    0.042615  -0.715750   8.000309   0.418776   0.534416   0.535716
    10  H   -0.001259   0.074262   0.418776   0.502862  -0.015607  -0.015562
    11  H    0.000524  -0.004072   0.534416  -0.015607   0.565297  -0.049860
    12  H    0.000534  -0.004272   0.535716  -0.015562  -0.049860   0.565366
    13  C   -0.108512  -0.261767  -0.180728  -0.006252  -0.002699  -0.002750
    14  H   -0.007048   0.007982  -0.003217   0.000072   0.000135  -0.000276
    15  H   -0.007183   0.007506  -0.003191   0.000074  -0.000276   0.000134
    16  H    0.000681   0.060766  -0.007899   0.000676   0.000013   0.000018
    17  C   -0.002295  -0.045163  -0.081384  -0.000371  -0.002246  -0.002261
    18  H    0.003702  -0.001232  -0.000293  -0.000074  -0.000053   0.000057
    19  H   -0.011249   0.006689  -0.005348   0.000320  -0.000050  -0.000052
    20  H    0.003570  -0.001215  -0.000303  -0.000072   0.000056  -0.000054
    21  O   -0.000098  -0.015850   0.075492   0.000040   0.005195   0.005202
    22  H   -0.000794  -0.001742  -0.041477   0.004128  -0.010713  -0.010731
              13         14         15         16         17         18
     1  C    0.449351   0.018216   0.017952  -0.118057   0.637229   0.021362
     2  C   -0.416241  -0.118348  -0.119453  -0.090064  -0.053224  -0.018521
     3  C   -0.864568  -0.020465  -0.021778   0.046718  -0.258763   0.033427
     4  C    0.144550   0.015974   0.016512  -0.006864  -0.857883  -0.124604
     5  C   -0.063497  -0.001486  -0.001149   0.004534  -0.778417  -0.059322
     6  C   -0.447670  -0.014817  -0.014188   0.007767  -0.366995  -0.012361
     7  H   -0.108512  -0.007048  -0.007183   0.000681  -0.002295   0.003702
     8  H   -0.261767   0.007982   0.007506   0.060766  -0.045163  -0.001232
     9  C   -0.180728  -0.003217  -0.003191  -0.007899  -0.081384  -0.000293
    10  H   -0.006252   0.000072   0.000074   0.000676  -0.000371  -0.000074
    11  H   -0.002699   0.000135  -0.000276   0.000013  -0.002246  -0.000053
    12  H   -0.002750  -0.000276   0.000134   0.000018  -0.002261   0.000057
    13  C    6.725291   0.465874   0.466960   0.460789  -0.028330  -0.000683
    14  H    0.465874   0.549083  -0.037505  -0.022807   0.000085  -0.000020
    15  H    0.466960  -0.037505   0.549730  -0.023315   0.000123  -0.000076
    16  H    0.460789  -0.022807  -0.023315   0.536607  -0.003971  -0.000056
    17  C   -0.028330   0.000085   0.000123  -0.003971   6.887252   0.508780
    18  H   -0.000683  -0.000020  -0.000076  -0.000056   0.508780   0.534017
    19  H   -0.000275   0.000370   0.000382   0.000436   0.418518  -0.030563
    20  H   -0.000666  -0.000068  -0.000014  -0.000066   0.508937  -0.024287
    21  O   -0.000787  -0.000087  -0.000084  -0.000049  -0.054485  -0.002947
    22  H    0.003987   0.000053   0.000053  -0.000136   0.022870   0.000259
              19         20         21         22
     1  C   -0.041590   0.021295   0.093636   0.048137
     2  C   -0.005777  -0.017653  -0.045447   0.002479
     3  C   -0.000640   0.031045   0.071472  -0.037350
     4  C   -0.074085  -0.123612  -0.495048   0.176405
     5  C    0.056389  -0.058143   0.080958   0.048309
     6  C   -0.009882  -0.012862   0.203419  -0.199015
     7  H   -0.011249   0.003570  -0.000098  -0.000794
     8  H    0.006689  -0.001215  -0.015850  -0.001742
     9  C   -0.005348  -0.000303   0.075492  -0.041477
    10  H    0.000320  -0.000072   0.000040   0.004128
    11  H   -0.000050   0.000056   0.005195  -0.010713
    12  H   -0.000052  -0.000054   0.005202  -0.010731
    13  C   -0.000275  -0.000666  -0.000787   0.003987
    14  H    0.000370  -0.000068  -0.000087   0.000053
    15  H    0.000382  -0.000014  -0.000084   0.000053
    16  H    0.000436  -0.000066  -0.000049  -0.000136
    17  C    0.418518   0.508937  -0.054485   0.022870
    18  H   -0.030563  -0.024287  -0.002947   0.000259
    19  H    0.553783  -0.030346   0.003069  -0.000647
    20  H   -0.030346   0.533656  -0.002966   0.000253
    21  O    0.003069  -0.002966   8.430529   0.172099
    22  H   -0.000647   0.000253   0.172099   0.437647
 Mulliken charges:
               1
     1  C    0.332901
     2  C    0.517665
     3  C   -1.073356
     4  C    0.576380
     5  C    0.540994
     6  C    0.310146
     7  H    0.044666
     8  H   -1.248555
     9  C   -0.601093
    10  H    0.172921
    11  H    0.167582
    12  H    0.167549
    13  C   -0.331376
    14  H    0.168301
    15  H    0.168787
    16  H    0.154278
    17  C   -0.448006
    18  H    0.173487
    19  H    0.170548
    20  H    0.173515
    21  O   -0.523262
    22  H    0.385928
 Sum of Mulliken charges =   0.00000
 Mulliken charges with hydrogens summed into heavy atoms:
               1
     1  C   -0.915654
     2  C    0.517665
     3  C   -1.028690
     4  C    0.576380
     5  C    0.540994
     6  C    0.310146
     9  C   -0.093041
    13  C    0.159990
    17  C    0.069543
    21  O   -0.137334
 Electronic spatial extent (au):  <R**2>=           2257.0304
 Charge=              0.0000 electrons
 Dipole moment (field-independent basis, Debye):
    X=             -0.7187    Y=             -0.0009    Z=             -1.1202  Tot=              1.3309
 Quadrupole moment (field-independent basis, Debye-Ang):
   XX=            -63.4361   YY=            -63.6645   ZZ=            -53.0736
   XY=              0.0004   XZ=             -3.2047   YZ=             -0.0007
 Traceless Quadrupole moment (field-independent basis, Debye-Ang):
   XX=             -3.3780   YY=             -3.6064   ZZ=              6.9845
   XY=              0.0004   XZ=             -3.2047   YZ=             -0.0007
 Octapole moment (field-independent basis, Debye-Ang**2):
  XXX=           -285.4148  YYY=              0.0303  ZZZ=           -101.2720  XYY=            -91.4439
  XXY=              0.0234  XXZ=            -41.4603  XZZ=            -70.9224  YZZ=              0.0236
  YYZ=            -35.8612  XYZ=              0.0059
 Hexadecapole moment (field-independent basis, Debye-Ang**3):
 XXXX=          -1985.0282 YYYY=            -94.3966 ZZZZ=          -1069.7229 XXXY=              0.0851
 XXXZ=           -104.7613 YYYX=              0.0872 YYYZ=             -0.0274 ZZZX=           -105.3723
 ZZZY=              0.1145 XXYY=           -332.5861 XXZZ=           -438.5952 YYZZ=           -203.5879
 XXYZ=             -0.0094 YYXZ=            -33.6059 ZZXY=              0.0260
 N-N= 5.169088036500D+02 E-N=-2.020272472931D+03  KE= 4.231536608457D+02
 Variable Step   Value    
 -------- ---- -----------
     7       1    1.133836
 ---------------------------------------------------------------------------------------------------
                            Z-MATRIX (ANGSTROMS AND DEGREES)
   CD    Cent   Atom    N1       Length/X        N2       Alpha/Y        N3        Beta/Z          J
 ---------------------------------------------------------------------------------------------------
      1      1  C 
      2      2  C        1   1.401724(     1)
      3      3  C        2   1.406789(     2)      1  118.055(    22)
      4      4  C        3   1.400915(     3)      2  122.112(    23)      1   -0.009(    42)      0
      5      5  C        4   1.405746(     4)      3  117.824(    24)      2   -0.001(    43)      0
      6      6  C        5   1.404289(     5)      4  122.156(    25)      3    0.007(    44)      0
      7      7  H        3   1.087747(     6)      2  119.407(    26)      1  179.986(    45)      0
      8      8  H        1   0.600000(     7)      2  119.427(    27)      3 -179.989(    46)      0
      9      9  C        6   1.513682(     8)      5  120.963(    28)      4  179.989(    47)      0
     10     10  H        9   1.094102(     9)      6  110.528(    29)      5 -179.995(    48)      0
     11     11  H        9   1.100142(    10)      6  112.220(    30)      5   60.715(    49)      0
     12     12  H        9   1.100143(    11)      6  112.220(    31)      5  -60.706(    50)      0
     13     13  C        2   1.514771(    12)      1  121.203(    32)      6 -179.963(    51)      0
     14     14  H       13   1.097772(    13)      2  111.483(    33)      1 -120.596(    52)      0
     15     15  H       13   1.097837(    14)      2  111.482(    34)      1  119.653(    53)      0
     16     16  H       13   1.095261(    15)      2  111.193(    35)      1   -0.464(    54)      0
     17     17  C        4   1.509153(    16)      3  122.005(    36)      2 -179.998(    55)      0
     18     18  H       17   1.096757(    17)      4  111.242(    37)      3  120.656(    56)      0
     19     19  H       17   1.094569(    18)      4  110.769(    38)      3   -0.105(    57)      0
     20     20  H       17   1.096722(    19)      4  111.243(    39)      3 -120.877(    58)      0
     21     21  O        5   1.405465(    20)      4  115.754(    40)      3 -179.998(    59)      0
     22     22  H       21   0.974436(    21)      5  112.627(    41)      4 -179.993(    60)      0
 ---------------------------------------------------------------------------------------------------
                         Z-Matrix orientation:                         
 ---------------------------------------------------------------------
 Center     Atomic      Atomic             Coordinates (Angstroms)
 Number     Number       Type             X           Y           Z
 ---------------------------------------------------------------------
      1          6           0        0.000000    0.000000    0.000000
      2          6           0        0.000000    0.000000    1.401724
      3          6           0        1.241488    0.000000    2.063361
      4          6           0        2.456750   -0.000177    1.366439
      5          6           0        2.407463   -0.000387   -0.038442
      6          6           0        1.193111   -0.000277   -0.743693
      7          1           0        1.267147    0.000235    3.150805
      8          1           0       -0.522590    0.000099   -0.294788
      9          6           0        1.171532   -0.000268   -2.257221
     10          1           0        0.141536   -0.000091   -2.626230
     11          1           0        1.663642   -0.888595   -2.680325
     12          1           0        1.663947    0.887899   -2.680306
     13          6           0       -1.295637   -0.000528    2.186489
     14          1           0       -1.370506    0.878733    2.839481
     15          1           0       -1.377295   -0.888347    2.827079
     16          1           0       -2.163344    0.007384    1.518195
     17          6           0        3.787241   -0.000228    2.078715
     18          1           0        4.383478   -0.879688    1.806822
     19          1           0        3.646388    0.001770    3.164181
     20          1           0        4.385230    0.877024    1.803694
     21          8           0        3.651135   -0.000610   -0.693127
     22          1           0        3.563909   -0.000647   -1.663651
 ---------------------------------------------------------------------
                    Distance matrix (angstroms):
                    1          2          3          4          5
     1  C    0.000000
     2  C    1.401724   0.000000
     3  C    2.408059   1.406789   0.000000
     4  C    2.811188   2.457003   1.400915   0.000000
     5  C    2.407769   2.805344   2.403554   1.405746   0.000000
     6  C    1.405914   2.454858   2.807470   2.459561   1.404289
     7  H    3.396062   2.159849   1.087747   2.144555   3.386978
     8  H    0.600000   1.775177   2.944968   3.411179   2.941245
     9  C    2.543135   3.841922   4.321148   3.844828   2.539784
    10  H    2.630041   4.030439   4.816861   4.615368   3.439632
    11  H    3.277414   4.496713   4.844623   4.218366   2.884740
    12  H    3.277366   4.496671   4.844503   4.218218   2.884668
    13  C    2.541537   1.514771   2.540110   3.840949   4.320100
    14  H    3.273089   2.172005   2.863048   4.194070   4.829942
    15  H    3.267794   2.172036   2.868876   4.197882   4.829501
    16  H    2.642920   2.166490   3.448208   4.622592   4.828608
    17  C    4.320214   3.847273   2.545800   1.509153   2.527082
    18  H    4.822171   4.489191   3.272883   2.163275   2.843028
    19  H    4.827856   4.049988   2.644873   2.155718   3.433910
    20  H    4.822108   4.490100   3.274098   2.163264   2.841633
    21  O    3.716344   4.209416   3.661233   2.380834   1.405465
    22  H    3.933088   4.700848   4.391385   3.226027   1.994661
                    6          7          8          9         10
     6  C    0.000000
     7  H    3.895202   0.000000
     8  H    1.773456   3.882689   0.000000
     9  C    1.513682   5.408872   2.592526   0.000000
    10  H    2.156329   5.885672   2.424187   1.094102   0.000000
    11  H    2.181984   5.911794   3.355618   1.100142   1.763284
    12  H    2.181975   5.911621   3.355567   1.100143   1.763289
    13  C    3.844455   2.738205   2.598911   5.082665   5.022721
    14  H    4.492652   2.797480   3.363718   5.762896   5.738692
    15  H    4.488437   2.808461   3.356473   5.756328   5.730133
    16  H    4.047467   3.799175   2.445207   5.037383   4.742234
    17  C    3.833470   2.738659   4.920179   5.063820   5.952114
    18  H    4.178149   3.506006   5.409278   5.254181   6.198363
    19  H    4.614114   2.379279   5.417089   5.959574   6.768519
    20  H    4.177135   3.507978   5.409189   5.252478   6.196975
    21  O    2.458543   4.523187   4.192690   2.931692   4.006765
    22  H    2.543031   5.334239   4.309670   2.464912   3.555164
                   11         12         13         14         15
    11  H    0.000000
    12  H    1.776494   0.000000
    13  C    5.764709   5.764906   0.000000
    14  H    6.541999   6.298892   1.097772   0.000000
    15  H    6.291168   6.537239   1.097837   1.767137   0.000000
    16  H    5.751188   5.748989   1.095261   1.770208   1.770137
    17  C    5.286523   5.286343   5.084020   5.287125   5.293509
    18  H    5.247101   5.536653   5.759289   6.104651   5.850428
    19  H    6.235566   6.234848   5.037807   5.103305   5.113056
    20  H    5.534517   5.245165   5.760979   5.848193   6.113146
    21  O    2.947473   2.947413   5.723875   6.202374   6.202019
    22  H    2.330899   2.330870   6.199900   6.737949   6.735738
                   16         17         18         19         20
    16  H    0.000000
    17  C    5.976931   0.000000
    18  H    6.612948   1.096757   0.000000
    19  H    6.038401   1.094569   1.778397   0.000000
    20  H    6.612232   1.096722   1.756716   1.778449   0.000000
    21  O    6.220786   2.775182   2.749336   3.857312   2.746498
    22  H    6.551766   3.749024   3.672682   4.828538   3.669790
                   21         22
    21  O    0.000000
    22  H    0.974436   0.000000
 Symmetry turned off by external request.
 Stoichiometry    C9H12O
 Framework group  C1[X(C9H12O)]
 Deg. of freedom    60
 Full point group                 C1      NOp   1
 Rotational constants (GHZ):           1.7399061           1.2446165           0.7355490
 Standard basis: 6-31++G(d,p) (6D, 7F)
   262 basis functions,   416 primitive gaussians,   262 cartesian basis functions
    37 alpha electrons       37 beta electrons
       nuclear repulsion energy       515.5437497231 Hartrees.
 NAtoms=   22 NActive=   22 NUniq=   22 SFac= 1.00D+00 NAtFMM=   60 NAOKFM=F Big=F
 Integral buffers will be    131072 words long.
 Raffenetti 2 integral format.
 Two-electron integral symmetry is turned off.
 One-electron integrals computed using PRISM.
 NBasis=   262 RedAO= T EigKep=  1.32D-06  NBF=   262
 NBsUse=   261 1.00D-06 EigRej=  7.37D-07 NBFU=   261
 Initial guess from the checkpoint file:  "C:\Users\Administrator\Desktop\dataset_dft\C8H6O3\C8H6O3.chk"
 B after Tr=    -0.002156    0.000000   -0.001453
         Rot=    1.000000    0.000000    0.000035    0.000000 Ang=   0.00 deg.
 ExpMin= 3.60D-02 ExpMax= 5.48D+03 ExpMxC= 8.25D+02 IAcc=3 IRadAn=         5 AccDes= 0.00D+00
 Harris functional with IExCor=  402 and IRadAn=       5 diagonalized for initial guess.
 HarFok:  IExCor=  402 AccDes= 0.00D+00 IRadAn=         5 IDoV= 1 UseB2=F ITyADJ=14
 ICtDFT=  3500011 ScaDFX=  1.000000  1.000000  1.000000  1.000000
 FoFCou: FMM=F IPFlag=           0 FMFlag=      100000 FMFlg1=           0
         NFxFlg=           0 DoJE=T BraDBF=F KetDBF=T FulRan=T
         wScrn=  0.000000 ICntrl=       500 IOpCl=  0 I1Cent=   200000004 NGrid=           0
         NMat0=    1 NMatS0=      1 NMatT0=    0 NMatD0=    1 NMtDS0=    0 NMtDT0=    0
 Symmetry not used in FoFCou.
 Requested convergence on RMS density matrix=1.00D-08 within 128 cycles.
 Requested convergence on MAX density matrix=1.00D-06.
 Requested convergence on             energy=1.00D-06.
 No special actions if energy rises.
 SCF Done:  E(RB3LYP) =  -424.982880343     A.U. after   12 cycles
            NFock= 12  Conv=0.97D-08     -V/T= 2.0057
 Variable Step   Value    
 -------- ---- -----------
     7       2    1.322808
 ---------------------------------------------------------------------------------------------------
                            Z-MATRIX (ANGSTROMS AND DEGREES)
   CD    Cent   Atom    N1       Length/X        N2       Alpha/Y        N3        Beta/Z          J
 ---------------------------------------------------------------------------------------------------
      1      1  C 
      2      2  C        1   1.401724(     1)
      3      3  C        2   1.406789(     2)      1  118.055(    22)
      4      4  C        3   1.400915(     3)      2  122.112(    23)      1   -0.009(    42)      0
      5      5  C        4   1.405746(     4)      3  117.824(    24)      2   -0.001(    43)      0
      6      6  C        5   1.404289(     5)      4  122.156(    25)      3    0.007(    44)      0
      7      7  H        3   1.087747(     6)      2  119.407(    26)      1  179.986(    45)      0
      8      8  H        1   0.700000(     7)      2  119.427(    27)      3 -179.989(    46)      0
      9      9  C        6   1.513682(     8)      5  120.963(    28)      4  179.989(    47)      0
     10     10  H        9   1.094102(     9)      6  110.528(    29)      5 -179.995(    48)      0
     11     11  H        9   1.100142(    10)      6  112.220(    30)      5   60.715(    49)      0
     12     12  H        9   1.100143(    11)      6  112.220(    31)      5  -60.706(    50)      0
     13     13  C        2   1.514771(    12)      1  121.203(    32)      6 -179.963(    51)      0
     14     14  H       13   1.097772(    13)      2  111.483(    33)      1 -120.596(    52)      0
     15     15  H       13   1.097837(    14)      2  111.482(    34)      1  119.653(    53)      0
     16     16  H       13   1.095261(    15)      2  111.193(    35)      1   -0.464(    54)      0
     17     17  C        4   1.509153(    16)      3  122.005(    36)      2 -179.998(    55)      0
     18     18  H       17   1.096757(    17)      4  111.242(    37)      3  120.656(    56)      0
     19     19  H       17   1.094569(    18)      4  110.769(    38)      3   -0.105(    57)      0
     20     20  H       17   1.096722(    19)      4  111.243(    39)      3 -120.877(    58)      0
     21     21  O        5   1.405465(    20)      4  115.754(    40)      3 -179.998(    59)      0
     22     22  H       21   0.974436(    21)      5  112.627(    41)      4 -179.993(    60)      0
 ---------------------------------------------------------------------------------------------------
                         Z-Matrix orientation:                         
 ---------------------------------------------------------------------
 Center     Atomic      Atomic             Coordinates (Angstroms)
 Number     Number       Type             X           Y           Z
 ---------------------------------------------------------------------
      1          6           0        0.000000    0.000000    0.000000
      2          6           0        0.000000    0.000000    1.401724
      3          6           0        1.241488    0.000000    2.063361
      4          6           0        2.456750   -0.000177    1.366439
      5          6           0        2.407463   -0.000387   -0.038442
      6          6           0        1.193111   -0.000277   -0.743693
      7          1           0        1.267147    0.000235    3.150805
      8          1           0       -0.609688    0.000115   -0.343919
      9          6           0        1.171532   -0.000268   -2.257221
     10          1           0        0.141536   -0.000091   -2.626230
     11          1           0        1.663642   -0.888595   -2.680325
     12          1           0        1.663947    0.887899   -2.680306
     13          6           0       -1.295637   -0.000528    2.186489
     14          1           0       -1.370506    0.878733    2.839481
     15          1           0       -1.377295   -0.888347    2.827079
     16          1           0       -2.163344    0.007384    1.518195
     17          6           0        3.787241   -0.000228    2.078715
     18          1           0        4.383478   -0.879688    1.806822
     19          1           0        3.646388    0.001770    3.164181
     20          1           0        4.385230    0.877024    1.803694
     21          8           0        3.651135   -0.000610   -0.693127
     22          1           0        3.563909   -0.000647   -1.663651
 ---------------------------------------------------------------------
                    Distance matrix (angstroms):
                    1          2          3          4          5
     1  C    0.000000
     2  C    1.401724   0.000000
     3  C    2.408059   1.406789   0.000000
     4  C    2.811188   2.457003   1.400915   0.000000
     5  C    2.407769   2.805344   2.403554   1.405746   0.000000
     6  C    1.405914   2.454858   2.807470   2.459561   1.404289
     7  H    3.396062   2.159849   1.087747   2.144555   3.386978
     8  H    0.700000   1.849051   3.036750   3.511178   3.032575
     9  C    2.543135   3.841922   4.321148   3.844828   2.539784
    10  H    2.630041   4.030439   4.816861   4.615368   3.439632
    11  H    3.277414   4.496713   4.844623   4.218366   2.884740
    12  H    3.277366   4.496671   4.844503   4.218218   2.884668
    13  C    2.541537   1.514771   2.540110   3.840949   4.320100
    14  H    3.273089   2.172005   2.863048   4.194070   4.829942
    15  H    3.267794   2.172036   2.868876   4.197882   4.829501
    16  H    2.642920   2.166490   3.448208   4.622592   4.828608
    17  C    4.320214   3.847273   2.545800   1.509153   2.527082
    18  H    4.822171   4.489191   3.272883   2.163275   2.843028
    19  H    4.827856   4.049988   2.644873   2.155718   3.433910
    20  H    4.822108   4.490100   3.274098   2.163264   2.841633
    21  O    3.716344   4.209416   3.661233   2.380834   1.405465
    22  H    3.933088   4.700848   4.391385   3.226027   1.994661
                    6          7          8          9         10
     6  C    0.000000
     7  H    3.895202   0.000000
     8  H    1.846593   3.966813   0.000000
     9  C    1.513682   5.408872   2.614091   0.000000
    10  H    2.156329   5.885672   2.402765   1.094102   0.000000
    11  H    2.181984   5.911794   3.378849   1.100142   1.763284
    12  H    2.181975   5.911621   3.378799   1.100143   1.763289
    13  C    3.844455   2.738205   2.621735   5.082665   5.022721
    14  H    4.492652   2.797480   3.388930   5.762896   5.738692
    15  H    4.488437   2.808461   3.381393   5.756328   5.730133
    16  H    4.047467   3.799175   2.425154   5.037383   4.742234
    17  C    3.833470   2.738659   5.020174   5.063820   5.952114
    18  H    4.178149   3.506006   5.507399   5.254181   6.198363
    19  H    4.614114   2.379279   5.515520   5.959574   6.768519
    20  H    4.177135   3.507978   5.507306   5.252478   6.196975
    21  O    2.458543   4.523187   4.275109   2.931692   4.006765
    22  H    2.543031   5.334239   4.377283   2.464912   3.555164
                   11         12         13         14         15
    11  H    0.000000
    12  H    1.776494   0.000000
    13  C    5.764709   5.764906   0.000000
    14  H    6.541999   6.298892   1.097772   0.000000
    15  H    6.291168   6.537239   1.097837   1.767137   0.000000
    16  H    5.751188   5.748989   1.095261   1.770208   1.770137
    17  C    5.286523   5.286343   5.084020   5.287125   5.293509
    18  H    5.247101   5.536653   5.759289   6.104651   5.850428
    19  H    6.235566   6.234848   5.037807   5.103305   5.113056
    20  H    5.534517   5.245165   5.760979   5.848193   6.113146
    21  O    2.947473   2.947413   5.723875   6.202374   6.202019
    22  H    2.330899   2.330870   6.199900   6.737949   6.735738
                   16         17         18         19         20
    16  H    0.000000
    17  C    5.976931   0.000000
    18  H    6.612948   1.096757   0.000000
    19  H    6.038401   1.094569   1.778397   0.000000
    20  H    6.612232   1.096722   1.756716   1.778449   0.000000
    21  O    6.220786   2.775182   2.749336   3.857312   2.746498
    22  H    6.551766   3.749024   3.672682   4.828538   3.669790
                   21         22
    21  O    0.000000
    22  H    0.974436   0.000000
 Symmetry turned off by external request.
 Stoichiometry    C9H12O
 Framework group  C1[X(C9H12O)]
 Deg. of freedom    60
 Full point group                 C1      NOp   1
 Rotational constants (GHZ):           1.7380447           1.2442033           0.7350719
 Standard basis: 6-31++G(d,p) (6D, 7F)
   262 basis functions,   416 primitive gaussians,   262 cartesian basis functions
    37 alpha electrons       37 beta electrons
       nuclear repulsion energy       514.4899710965 Hartrees.
 NAtoms=   22 NActive=   22 NUniq=   22 SFac= 1.00D+00 NAtFMM=   60 NAOKFM=F Big=F
 Integral buffers will be    131072 words long.
 Raffenetti 2 integral format.
 Two-electron integral symmetry is turned off.
 One-electron integrals computed using PRISM.
 NBasis=   262 RedAO= T EigKep=  1.33D-06  NBF=   262
 NBsUse=   261 1.00D-06 EigRej=  7.41D-07 NBFU=   261
 Initial guess from the checkpoint file:  "C:\Users\Administrator\Desktop\dataset_dft\C8H6O3\C8H6O3.chk"
 B after Tr=    -0.002156    0.000000   -0.001452
         Rot=    1.000000    0.000000    0.000035    0.000000 Ang=   0.00 deg.
 ExpMin= 3.60D-02 ExpMax= 5.48D+03 ExpMxC= 8.25D+02 IAcc=3 IRadAn=         5 AccDes= 0.00D+00
 Harris functional with IExCor=  402 and IRadAn=       5 diagonalized for initial guess.
 HarFok:  IExCor=  402 AccDes= 0.00D+00 IRadAn=         5 IDoV= 1 UseB2=F ITyADJ=14
 ICtDFT=  3500011 ScaDFX=  1.000000  1.000000  1.000000  1.000000
 FoFCou: FMM=F IPFlag=           0 FMFlag=      100000 FMFlg1=           0
         NFxFlg=           0 DoJE=T BraDBF=F KetDBF=T FulRan=T
         wScrn=  0.000000 ICntrl=       500 IOpCl=  0 I1Cent=   200000004 NGrid=           0
         NMat0=    1 NMatS0=      1 NMatT0=    0 NMatD0=    1 NMtDS0=    0 NMtDT0=    0
 Symmetry not used in FoFCou.
 Requested convergence on RMS density matrix=1.00D-08 within 128 cycles.
 Requested convergence on MAX density matrix=1.00D-06.
 Requested convergence on             energy=1.00D-06.
 No special actions if energy rises.
 SCF Done:  E(RB3LYP) =  -425.228302488     A.U. after   12 cycles
            NFock= 12  Conv=0.66D-08     -V/T= 2.0073
 Variable Step   Value    
 -------- ---- -----------
     7       3    1.511781
 ---------------------------------------------------------------------------------------------------
                            Z-MATRIX (ANGSTROMS AND DEGREES)
   CD    Cent   Atom    N1       Length/X        N2       Alpha/Y        N3        Beta/Z          J
 ---------------------------------------------------------------------------------------------------
      1      1  C 
      2      2  C        1   1.401724(     1)
      3      3  C        2   1.406789(     2)      1  118.055(    22)
      4      4  C        3   1.400915(     3)      2  122.112(    23)      1   -0.009(    42)      0
      5      5  C        4   1.405746(     4)      3  117.824(    24)      2   -0.001(    43)      0
      6      6  C        5   1.404289(     5)      4  122.156(    25)      3    0.007(    44)      0
      7      7  H        3   1.087747(     6)      2  119.407(    26)      1  179.986(    45)      0
      8      8  H        1   0.800000(     7)      2  119.427(    27)      3 -179.989(    46)      0
      9      9  C        6   1.513682(     8)      5  120.963(    28)      4  179.989(    47)      0
     10     10  H        9   1.094102(     9)      6  110.528(    29)      5 -179.995(    48)      0
     11     11  H        9   1.100142(    10)      6  112.220(    30)      5   60.715(    49)      0
     12     12  H        9   1.100143(    11)      6  112.220(    31)      5  -60.706(    50)      0
     13     13  C        2   1.514771(    12)      1  121.203(    32)      6 -179.963(    51)      0
     14     14  H       13   1.097772(    13)      2  111.483(    33)      1 -120.596(    52)      0
     15     15  H       13   1.097837(    14)      2  111.482(    34)      1  119.653(    53)      0
     16     16  H       13   1.095261(    15)      2  111.193(    35)      1   -0.464(    54)      0
     17     17  C        4   1.509153(    16)      3  122.005(    36)      2 -179.998(    55)      0
     18     18  H       17   1.096757(    17)      4  111.242(    37)      3  120.656(    56)      0
     19     19  H       17   1.094569(    18)      4  110.769(    38)      3   -0.105(    57)      0
     20     20  H       17   1.096722(    19)      4  111.243(    39)      3 -120.877(    58)      0
     21     21  O        5   1.405465(    20)      4  115.754(    40)      3 -179.998(    59)      0
     22     22  H       21   0.974436(    21)      5  112.627(    41)      4 -179.993(    60)      0
 ---------------------------------------------------------------------------------------------------
                         Z-Matrix orientation:                         
 ---------------------------------------------------------------------
 Center     Atomic      Atomic             Coordinates (Angstroms)
 Number     Number       Type             X           Y           Z
 ---------------------------------------------------------------------
      1          6           0        0.000000    0.000000    0.000000
      2          6           0        0.000000    0.000000    1.401724
      3          6           0        1.241488    0.000000    2.063361
      4          6           0        2.456750   -0.000177    1.366439
      5          6           0        2.407463   -0.000387   -0.038442
      6          6           0        1.193111   -0.000277   -0.743693
      7          1           0        1.267147    0.000235    3.150805
      8          1           0       -0.696786    0.000132   -0.393051
      9          6           0        1.171532   -0.000268   -2.257221
     10          1           0        0.141536   -0.000091   -2.626230
     11          1           0        1.663642   -0.888595   -2.680325
     12          1           0        1.663947    0.887899   -2.680306
     13          6           0       -1.295637   -0.000528    2.186489
     14          1           0       -1.370506    0.878733    2.839481
     15          1           0       -1.377295   -0.888347    2.827079
     16          1           0       -2.163344    0.007384    1.518195
     17          6           0        3.787241   -0.000228    2.078715
     18          1           0        4.383478   -0.879688    1.806822
     19          1           0        3.646388    0.001770    3.164181
     20          1           0        4.385230    0.877024    1.803694
     21          8           0        3.651135   -0.000610   -0.693127
     22          1           0        3.563909   -0.000647   -1.663651
 ---------------------------------------------------------------------
                    Distance matrix (angstroms):
                    1          2          3          4          5
     1  C    0.000000
     2  C    1.401724   0.000000
     3  C    2.408059   1.406789   0.000000
     4  C    2.811188   2.457003   1.400915   0.000000
     5  C    2.407769   2.805344   2.403554   1.405746   0.000000
     6  C    1.405914   2.454858   2.807470   2.459561   1.404289
     7  H    3.396062   2.159849   1.087747   2.144555   3.386978
     8  H    0.800000   1.925286   3.129035   3.611176   3.124437
     9  C    2.543135   3.841922   4.321148   3.844828   2.539784
    10  H    2.630041   4.030439   4.816861   4.615368   3.439632
    11  H    3.277414   4.496713   4.844623   4.218366   2.884740
    12  H    3.277366   4.496671   4.844503   4.218218   2.884668
    13  C    2.541537   1.514771   2.540110   3.840949   4.320100
    14  H    3.273089   2.172005   2.863048   4.194070   4.829942
    15  H    3.267794   2.172036   2.868876   4.197882   4.829501
    16  H    2.642920   2.166490   3.448208   4.622592   4.828608
    17  C    4.320214   3.847273   2.545800   1.509153   2.527082
    18  H    4.822171   4.489191   3.272883   2.163275   2.843028
    19  H    4.827856   4.049988   2.644873   2.155718   3.433910
    20  H    4.822108   4.490100   3.274098   2.163264   2.841633
    21  O    3.716344   4.209416   3.661233   2.380834   1.405465
    22  H    3.933088   4.700848   4.391385   3.226027   1.994661
                    6          7          8          9         10
     6  C    0.000000
     7  H    3.895202   0.000000
     8  H    1.922151   4.051660   0.000000
     9  C    1.513682   5.408872   2.639270   0.000000
    10  H    2.156329   5.885672   2.385345   1.094102   0.000000
    11  H    2.181984   5.911794   3.404861   1.100142   1.763284
    12  H    2.181975   5.911621   3.404810   1.100143   1.763289
    13  C    3.844455   2.738205   2.648141   5.082665   5.022721
    14  H    4.492652   2.797480   3.416884   5.762896   5.738692
    15  H    4.488437   2.808461   3.409065   5.756328   5.730133
    16  H    4.047467   3.799175   2.409088   5.037383   4.742234
    17  C    3.833470   2.738659   5.120169   5.063820   5.952114
    18  H    4.178149   3.506006   5.605587   5.254181   6.198363
    19  H    4.614114   2.379279   5.614006   5.959574   6.768519
    20  H    4.177135   3.507978   5.605490   5.252478   6.196975
    21  O    2.458543   4.523187   4.358264   2.931692   4.006765
    22  H    2.543031   5.334239   4.446116   2.464912   3.555164
                   11         12         13         14         15
    11  H    0.000000
    12  H    1.776494   0.000000
    13  C    5.764709   5.764906   0.000000
    14  H    6.541999   6.298892   1.097772   0.000000
    15  H    6.291168   6.537239   1.097837   1.767137   0.000000
    16  H    5.751188   5.748989   1.095261   1.770208   1.770137
    17  C    5.286523   5.286343   5.084020   5.287125   5.293509
    18  H    5.247101   5.536653   5.759289   6.104651   5.850428
    19  H    6.235566   6.234848   5.037807   5.103305   5.113056
    20  H    5.534517   5.245165   5.760979   5.848193   6.113146
    21  O    2.947473   2.947413   5.723875   6.202374   6.202019
    22  H    2.330899   2.330870   6.199900   6.737949   6.735738
                   16         17         18         19         20
    16  H    0.000000
    17  C    5.976931   0.000000
    18  H    6.612948   1.096757   0.000000
    19  H    6.038401   1.094569   1.778397   0.000000
    20  H    6.612232   1.096722   1.756716   1.778449   0.000000
    21  O    6.220786   2.775182   2.749336   3.857312   2.746498
    22  H    6.551766   3.749024   3.672682   4.828538   3.669790
                   21         22
    21  O    0.000000
    22  H    0.974436   0.000000
 Symmetry turned off by external request.
 Stoichiometry    C9H12O
 Framework group  C1[X(C9H12O)]
 Deg. of freedom    60
 Full point group                 C1      NOp   1
 Rotational constants (GHZ):           1.7361019           1.2437730           0.7345741
 Standard basis: 6-31++G(d,p) (6D, 7F)
   262 basis functions,   416 primitive gaussians,   262 cartesian basis functions
    37 alpha electrons       37 beta electrons
       nuclear repulsion energy       513.6342534205 Hartrees.
 NAtoms=   22 NActive=   22 NUniq=   22 SFac= 1.00D+00 NAtFMM=   60 NAOKFM=F Big=F
 Integral buffers will be    131072 words long.
 Raffenetti 2 integral format.
 Two-electron integral symmetry is turned off.
 One-electron integrals computed using PRISM.
 NBasis=   262 RedAO= T EigKep=  1.33D-06  NBF=   262
 NBsUse=   261 1.00D-06 EigRej=  7.44D-07 NBFU=   261
 Initial guess from the checkpoint file:  "C:\Users\Administrator\Desktop\dataset_dft\C8H6O3\C8H6O3.chk"
 B after Tr=    -0.002156    0.000000   -0.001452
         Rot=    1.000000    0.000000    0.000035    0.000000 Ang=   0.00 deg.
 ExpMin= 3.60D-02 ExpMax= 5.48D+03 ExpMxC= 8.25D+02 IAcc=3 IRadAn=         5 AccDes= 0.00D+00
 Harris functional with IExCor=  402 and IRadAn=       5 diagonalized for initial guess.
 HarFok:  IExCor=  402 AccDes= 0.00D+00 IRadAn=         5 IDoV= 1 UseB2=F ITyADJ=14
 ICtDFT=  3500011 ScaDFX=  1.000000  1.000000  1.000000  1.000000
 FoFCou: FMM=F IPFlag=           0 FMFlag=      100000 FMFlg1=           0
         NFxFlg=           0 DoJE=T BraDBF=F KetDBF=T FulRan=T
         wScrn=  0.000000 ICntrl=       500 IOpCl=  0 I1Cent=   200000004 NGrid=           0
         NMat0=    1 NMatS0=      1 NMatT0=    0 NMatD0=    1 NMtDS0=    0 NMtDT0=    0
 Symmetry not used in FoFCou.
 Requested convergence on RMS density matrix=1.00D-08 within 128 cycles.
 Requested convergence on MAX density matrix=1.00D-06.
 Requested convergence on             energy=1.00D-06.
 No special actions if energy rises.
 SCF Done:  E(RB3LYP) =  -425.357889991     A.U. after   12 cycles
            NFock= 12  Conv=0.75D-08     -V/T= 2.0085
 Variable Step   Value    
 -------- ---- -----------
     7       4    1.700754
 ---------------------------------------------------------------------------------------------------
                            Z-MATRIX (ANGSTROMS AND DEGREES)
   CD    Cent   Atom    N1       Length/X        N2       Alpha/Y        N3        Beta/Z          J
 ---------------------------------------------------------------------------------------------------
      1      1  C 
      2      2  C        1   1.401724(     1)
      3      3  C        2   1.406789(     2)      1  118.055(    22)
      4      4  C        3   1.400915(     3)      2  122.112(    23)      1   -0.009(    42)      0
      5      5  C        4   1.405746(     4)      3  117.824(    24)      2   -0.001(    43)      0
      6      6  C        5   1.404289(     5)      4  122.156(    25)      3    0.007(    44)      0
      7      7  H        3   1.087747(     6)      2  119.407(    26)      1  179.986(    45)      0
      8      8  H        1   0.900000(     7)      2  119.427(    27)      3 -179.989(    46)      0
      9      9  C        6   1.513682(     8)      5  120.963(    28)      4  179.989(    47)      0
     10     10  H        9   1.094102(     9)      6  110.528(    29)      5 -179.995(    48)      0
     11     11  H        9   1.100142(    10)      6  112.220(    30)      5   60.715(    49)      0
     12     12  H        9   1.100143(    11)      6  112.220(    31)      5  -60.706(    50)      0
     13     13  C        2   1.514771(    12)      1  121.203(    32)      6 -179.963(    51)      0
     14     14  H       13   1.097772(    13)      2  111.483(    33)      1 -120.596(    52)      0
     15     15  H       13   1.097837(    14)      2  111.482(    34)      1  119.653(    53)      0
     16     16  H       13   1.095261(    15)      2  111.193(    35)      1   -0.464(    54)      0
     17     17  C        4   1.509153(    16)      3  122.005(    36)      2 -179.998(    55)      0
     18     18  H       17   1.096757(    17)      4  111.242(    37)      3  120.656(    56)      0
     19     19  H       17   1.094569(    18)      4  110.769(    38)      3   -0.105(    57)      0
     20     20  H       17   1.096722(    19)      4  111.243(    39)      3 -120.877(    58)      0
     21     21  O        5   1.405465(    20)      4  115.754(    40)      3 -179.998(    59)      0
     22     22  H       21   0.974436(    21)      5  112.627(    41)      4 -179.993(    60)      0
 ---------------------------------------------------------------------------------------------------
                         Z-Matrix orientation:                         
 ---------------------------------------------------------------------
 Center     Atomic      Atomic             Coordinates (Angstroms)
 Number     Number       Type             X           Y           Z
 ---------------------------------------------------------------------
      1          6           0        0.000000    0.000000    0.000000
      2          6           0        0.000000    0.000000    1.401724
      3          6           0        1.241488    0.000000    2.063361
      4          6           0        2.456750   -0.000177    1.366439
      5          6           0        2.407463   -0.000387   -0.038442
      6          6           0        1.193111   -0.000277   -0.743693
      7          1           0        1.267147    0.000235    3.150805
      8          1           0       -0.783885    0.000148   -0.442182
      9          6           0        1.171532   -0.000268   -2.257221
     10          1           0        0.141536   -0.000091   -2.626230
     11          1           0        1.663642   -0.888595   -2.680325
     12          1           0        1.663947    0.887899   -2.680306
     13          6           0       -1.295637   -0.000528    2.186489
     14          1           0       -1.370506    0.878733    2.839481
     15          1           0       -1.377295   -0.888347    2.827079
     16          1           0       -2.163344    0.007384    1.518195
     17          6           0        3.787241   -0.000228    2.078715
     18          1           0        4.383478   -0.879688    1.806822
     19          1           0        3.646388    0.001770    3.164181
     20          1           0        4.385230    0.877024    1.803694
     21          8           0        3.651135   -0.000610   -0.693127
     22          1           0        3.563909   -0.000647   -1.663651
 ---------------------------------------------------------------------
                    Distance matrix (angstroms):
                    1          2          3          4          5
     1  C    0.000000
     2  C    1.401724   0.000000
     3  C    2.408059   1.406789   0.000000
     4  C    2.811188   2.457003   1.400915   0.000000
     5  C    2.407769   2.805344   2.403554   1.405746   0.000000
     6  C    1.405914   2.454858   2.807470   2.459561   1.404289
     7  H    3.396062   2.159849   1.087747   2.144555   3.386978
     8  H    0.900000   2.003613   3.221782   3.711175   3.216784
     9  C    2.543135   3.841922   4.321148   3.844828   2.539784
    10  H    2.630041   4.030439   4.816861   4.615368   3.439632
    11  H    3.277414   4.496713   4.844623   4.218366   2.884740
    12  H    3.277366   4.496671   4.844503   4.218218   2.884668
    13  C    2.541537   1.514771   2.540110   3.840949   4.320100
    14  H    3.273089   2.172005   2.863048   4.194070   4.829942
    15  H    3.267794   2.172036   2.868876   4.197882   4.829501
    16  H    2.642920   2.166490   3.448208   4.622592   4.828608
    17  C    4.320214   3.847273   2.545800   1.509153   2.527082
    18  H    4.822171   4.489191   3.272883   2.163275   2.843028
    19  H    4.827856   4.049988   2.644873   2.155718   3.433910
    20  H    4.822108   4.490100   3.274098   2.163264   2.841633
    21  O    3.716344   4.209416   3.661233   2.380834   1.405465
    22  H    3.933088   4.700848   4.391385   3.226027   1.994661
                    6          7          8          9         10
     6  C    0.000000
     7  H    3.895202   0.000000
     8  H    1.999856   4.137184   0.000000
     9  C    1.513682   5.408872   2.667962   0.000000
    10  H    2.156329   5.885672   2.372018   1.094102   0.000000
    11  H    2.181984   5.911794   3.433589   1.100142   1.763284
    12  H    2.181975   5.911621   3.433538   1.100143   1.763289
    13  C    3.844455   2.738205   2.678022   5.082665   5.022721
    14  H    4.492652   2.797480   3.447513   5.762896   5.738692
    15  H    4.488437   2.808461   3.439423   5.756328   5.730133
    16  H    4.047467   3.799175   2.397090   5.037383   4.742234
    17  C    3.833470   2.738659   5.220164   5.063820   5.952114
    18  H    4.178149   3.506006   5.703838   5.254181   6.198363
    19  H    4.614114   2.379279   5.712545   5.959574   6.768519
    20  H    4.177135   3.507978   5.703737   5.252478   6.196975
    21  O    2.458543   4.523187   4.442113   2.931692   4.006765
    22  H    2.543031   5.334239   4.516115   2.464912   3.555164
                   11         12         13         14         15
    11  H    0.000000
    12  H    1.776494   0.000000
    13  C    5.764709   5.764906   0.000000
    14  H    6.541999   6.298892   1.097772   0.000000
    15  H    6.291168   6.537239   1.097837   1.767137   0.000000
    16  H    5.751188   5.748989   1.095261   1.770208   1.770137
    17  C    5.286523   5.286343   5.084020   5.287125   5.293509
    18  H    5.247101   5.536653   5.759289   6.104651   5.850428
    19  H    6.235566   6.234848   5.037807   5.103305   5.113056
    20  H    5.534517   5.245165   5.760979   5.848193   6.113146
    21  O    2.947473   2.947413   5.723875   6.202374   6.202019
    22  H    2.330899   2.330870   6.199900   6.737949   6.735738
                   16         17         18         19         20
    16  H    0.000000
    17  C    5.976931   0.000000
    18  H    6.612948   1.096757   0.000000
    19  H    6.038401   1.094569   1.778397   0.000000
    20  H    6.612232   1.096722   1.756716   1.778449   0.000000
    21  O    6.220786   2.775182   2.749336   3.857312   2.746498
    22  H    6.551766   3.749024   3.672682   4.828538   3.669790
                   21         22
    21  O    0.000000
    22  H    0.974436   0.000000
 Symmetry turned off by external request.
 Stoichiometry    C9H12O
 Framework group  C1[X(C9H12O)]
 Deg. of freedom    60
 Full point group                 C1      NOp   1
 Rotational constants (GHZ):           1.7340786           1.2433253           0.7340556
 Standard basis: 6-31++G(d,p) (6D, 7F)
   262 basis functions,   416 primitive gaussians,   262 cartesian basis functions
    37 alpha electrons       37 beta electrons
       nuclear repulsion energy       512.9135926026 Hartrees.
 NAtoms=   22 NActive=   22 NUniq=   22 SFac= 1.00D+00 NAtFMM=   60 NAOKFM=F Big=F
 Integral buffers will be    131072 words long.
 Raffenetti 2 integral format.
 Two-electron integral symmetry is turned off.
 One-electron integrals computed using PRISM.
 NBasis=   262 RedAO= T EigKep=  1.34D-06  NBF=   262
 NBsUse=   261 1.00D-06 EigRej=  7.46D-07 NBFU=   261
 Initial guess from the checkpoint file:  "C:\Users\Administrator\Desktop\dataset_dft\C8H6O3\C8H6O3.chk"
 B after Tr=    -0.002156    0.000000   -0.001452
         Rot=    1.000000    0.000000    0.000035    0.000000 Ang=   0.00 deg.
 ExpMin= 3.60D-02 ExpMax= 5.48D+03 ExpMxC= 8.25D+02 IAcc=3 IRadAn=         5 AccDes= 0.00D+00
 Harris functional with IExCor=  402 and IRadAn=       5 diagonalized for initial guess.
 HarFok:  IExCor=  402 AccDes= 0.00D+00 IRadAn=         5 IDoV= 1 UseB2=F ITyADJ=14
 ICtDFT=  3500011 ScaDFX=  1.000000  1.000000  1.000000  1.000000
 FoFCou: FMM=F IPFlag=           0 FMFlag=      100000 FMFlg1=           0
         NFxFlg=           0 DoJE=T BraDBF=F KetDBF=T FulRan=T
         wScrn=  0.000000 ICntrl=       500 IOpCl=  0 I1Cent=   200000004 NGrid=           0
         NMat0=    1 NMatS0=      1 NMatT0=    0 NMatD0=    1 NMtDS0=    0 NMtDT0=    0
 Symmetry not used in FoFCou.
 Requested convergence on RMS density matrix=1.00D-08 within 128 cycles.
 Requested convergence on MAX density matrix=1.00D-06.
 Requested convergence on             energy=1.00D-06.
 No special actions if energy rises.
 SCF Done:  E(RB3LYP) =  -425.422308950     A.U. after   12 cycles
            NFock= 12  Conv=0.84D-08     -V/T= 2.0093
 Variable Step   Value    
 -------- ---- -----------
     7       5    1.889726
 ---------------------------------------------------------------------------------------------------
                            Z-MATRIX (ANGSTROMS AND DEGREES)
   CD    Cent   Atom    N1       Length/X        N2       Alpha/Y        N3        Beta/Z          J
 ---------------------------------------------------------------------------------------------------
      1      1  C 
      2      2  C        1   1.401724(     1)
      3      3  C        2   1.406789(     2)      1  118.055(    22)
      4      4  C        3   1.400915(     3)      2  122.112(    23)      1   -0.009(    42)      0
      5      5  C        4   1.405746(     4)      3  117.824(    24)      2   -0.001(    43)      0
      6      6  C        5   1.404289(     5)      4  122.156(    25)      3    0.007(    44)      0
      7      7  H        3   1.087747(     6)      2  119.407(    26)      1  179.986(    45)      0
      8      8  H        1   1.000000(     7)      2  119.427(    27)      3 -179.989(    46)      0
      9      9  C        6   1.513682(     8)      5  120.963(    28)      4  179.989(    47)      0
     10     10  H        9   1.094102(     9)      6  110.528(    29)      5 -179.995(    48)      0
     11     11  H        9   1.100142(    10)      6  112.220(    30)      5   60.715(    49)      0
     12     12  H        9   1.100143(    11)      6  112.220(    31)      5  -60.706(    50)      0
     13     13  C        2   1.514771(    12)      1  121.203(    32)      6 -179.963(    51)      0
     14     14  H       13   1.097772(    13)      2  111.483(    33)      1 -120.596(    52)      0
     15     15  H       13   1.097837(    14)      2  111.482(    34)      1  119.653(    53)      0
     16     16  H       13   1.095261(    15)      2  111.193(    35)      1   -0.464(    54)      0
     17     17  C        4   1.509153(    16)      3  122.005(    36)      2 -179.998(    55)      0
     18     18  H       17   1.096757(    17)      4  111.242(    37)      3  120.656(    56)      0
     19     19  H       17   1.094569(    18)      4  110.769(    38)      3   -0.105(    57)      0
     20     20  H       17   1.096722(    19)      4  111.243(    39)      3 -120.877(    58)      0
     21     21  O        5   1.405465(    20)      4  115.754(    40)      3 -179.998(    59)      0
     22     22  H       21   0.974436(    21)      5  112.627(    41)      4 -179.993(    60)      0
 ---------------------------------------------------------------------------------------------------
                         Z-Matrix orientation:                         
 ---------------------------------------------------------------------
 Center     Atomic      Atomic             Coordinates (Angstroms)
 Number     Number       Type             X           Y           Z
 ---------------------------------------------------------------------
      1          6           0        0.000000    0.000000    0.000000
      2          6           0        0.000000    0.000000    1.401724
      3          6           0        1.241488    0.000000    2.063361
      4          6           0        2.456750   -0.000177    1.366439
      5          6           0        2.407463   -0.000387   -0.038442
      6          6           0        1.193111   -0.000277   -0.743693
      7          1           0        1.267147    0.000235    3.150805
      8          1           0       -0.870983    0.000164   -0.491313
      9          6           0        1.171532   -0.000268   -2.257221
     10          1           0        0.141536   -0.000091   -2.626230
     11          1           0        1.663642   -0.888595   -2.680325
     12          1           0        1.663947    0.887899   -2.680306
     13          6           0       -1.295637   -0.000528    2.186489
     14          1           0       -1.370506    0.878733    2.839481
     15          1           0       -1.377295   -0.888347    2.827079
     16          1           0       -2.163344    0.007384    1.518195
     17          6           0        3.787241   -0.000228    2.078715
     18          1           0        4.383478   -0.879688    1.806822
     19          1           0        3.646388    0.001770    3.164181
     20          1           0        4.385230    0.877024    1.803694
     21          8           0        3.651135   -0.000610   -0.693127
     22          1           0        3.563909   -0.000647   -1.663651
 ---------------------------------------------------------------------
                    Distance matrix (angstroms):
                    1          2          3          4          5
     1  C    0.000000
     2  C    1.401724   0.000000
     3  C    2.408059   1.406789   0.000000
     4  C    2.811188   2.457003   1.400915   0.000000
     5  C    2.407769   2.805344   2.403554   1.405746   0.000000
     6  C    1.405914   2.454858   2.807470   2.459561   1.404289
     7  H    3.396062   2.159849   1.087747   2.144555   3.386978
     8  H    1.000000   2.083795   3.314950   3.811174   3.309577
     9  C    2.543135   3.841922   4.321148   3.844828   2.539784
    10  H    2.630041   4.030439   4.816861   4.615368   3.439632
[...]
     20          1           0        4.385230    0.877024    1.803694
     21          8           0        3.651135   -0.000610   -0.693127
     22          1           0        3.563909   -0.000647   -1.663651
 ---------------------------------------------------------------------
                    Distance matrix (angstroms):
                    1          2          3          4          5
     1  C    0.000000
     2  C    1.401724   0.000000
     3  C    2.408059   1.406789   0.000000
     4  C    2.811188   2.457003   1.400915   0.000000
     5  C    2.407769   2.805344   2.403554   1.405746   0.000000
     6  C    1.405914   2.454858   2.807470   2.459561   1.404289
     7  H    3.396062   2.159849   1.087747   2.144555   3.386978
     8  H    2.400000   3.321223   4.649203   5.211164   4.640217
     9  C    2.543135   3.841922   4.321148   3.844828   2.539784
    10  H    2.630041   4.030439   4.816861   4.615368   3.439632
    11  H    3.277414   4.496713   4.844623   4.218366   2.884740
    12  H    3.277366   4.496671   4.844503   4.218218   2.884668
    13  C    2.541537   1.514771   2.540110   3.840949   4.320100
    14  H    3.273089   2.172005   2.863048   4.194070   4.829942
    15  H    3.267794   2.172036   2.868876   4.197882   4.829501
    16  H    2.642920   2.166490   3.448208   4.622592   4.828608
    17  C    4.320214   3.847273   2.545800   1.509153   2.527082
    18  H    4.822171   4.489191   3.272883   2.163275   2.843028
    19  H    4.827856   4.049988   2.644873   2.155718   3.433910
    20  H    4.822108   4.490100   3.274098   2.163264   2.841633
    21  O    3.716344   4.209416   3.661233   2.380834   1.405465
    22  H    3.933088   4.700848   4.391385   3.226027   1.994661
                    6          7          8          9         10
     6  C    0.000000
     7  H    3.895202   0.000000
     8  H    3.312220   5.479176   0.000000
     9  C    1.513682   5.408872   3.435428   0.000000
    10  H    2.156329   5.885672   2.659960   1.094102   0.000000
    11  H    2.181984   5.911794   4.139607   1.100142   1.763284
    12  H    2.181975   5.911621   4.139558   1.100143   1.763289
    13  C    3.844455   2.738205   3.458197   5.082665   5.022721
    14  H    4.492652   2.797480   4.176012   5.762896   5.738692
    15  H    4.488437   2.808461   4.165118   5.756328   5.730133
    16  H    4.047467   3.799175   2.698343   5.037383   4.742234
    17  C    3.833470   2.738659   6.720110   5.063820   5.952114
    18  H    4.178149   3.506006   7.183394   5.254181   6.198363
    19  H    4.614114   2.379279   7.195472   5.959574   6.768519
    20  H    4.177135   3.507978   7.183252   5.252478   6.196975
    21  O    2.458543   4.523187   5.762028   2.931692   4.006765
    22  H    2.543031   5.334239   5.674988   2.464912   3.555164
                   11         12         13         14         15
    11  H    0.000000
    12  H    1.776494   0.000000
    13  C    5.764709   5.764906   0.000000
    14  H    6.541999   6.298892   1.097772   0.000000
    15  H    6.291168   6.537239   1.097837   1.767137   0.000000
    16  H    5.751188   5.748989   1.095261   1.770208   1.770137
    17  C    5.286523   5.286343   5.084020   5.287125   5.293509
    18  H    5.247101   5.536653   5.759289   6.104651   5.850428
    19  H    6.235566   6.234848   5.037807   5.103305   5.113056
    20  H    5.534517   5.245165   5.760979   5.848193   6.113146
    21  O    2.947473   2.947413   5.723875   6.202374   6.202019
    22  H    2.330899   2.330870   6.199900   6.737949   6.735738
                   16         17         18         19         20
    16  H    0.000000
    17  C    5.976931   0.000000
    18  H    6.612948   1.096757   0.000000
    19  H    6.038401   1.094569   1.778397   0.000000
    20  H    6.612232   1.096722   1.756716   1.778449   0.000000
    21  O    6.220786   2.775182   2.749336   3.857312   2.746498
    22  H    6.551766   3.749024   3.672682   4.828538   3.669790
                   21         22
    21  O    0.000000
    22  H    0.974436   0.000000
 Symmetry turned off by external request.
 Stoichiometry    C9H12O
 Framework group  C1[X(C9H12O)]
 Deg. of freedom    60
 Full point group                 C1      NOp   1
 Rotational constants (GHZ):           1.6950075           1.2343002           0.7238675
 Standard basis: 6-31++G(d,p) (6D, 7F)
   262 basis functions,   416 primitive gaussians,   262 cartesian basis functions
    37 alpha electrons       37 beta electrons
       nuclear repulsion energy       507.4444248238 Hartrees.
 NAtoms=   22 NActive=   22 NUniq=   22 SFac= 1.00D+00 NAtFMM=   60 NAOKFM=F Big=F
 Integral buffers will be    131072 words long.
 Raffenetti 2 integral format.
 Two-electron integral symmetry is turned off.
 One-electron integrals computed using PRISM.
 NBasis=   262 RedAO= T EigKep=  1.35D-06  NBF=   262
 NBsUse=   261 1.00D-06 EigRej=  6.44D-07 NBFU=   261
 Initial guess from the checkpoint file:  "C:\Users\Administrator\Desktop\dataset_dft\C8H6O3\C8H6O3.chk"
 B after Tr=    -0.002159    0.000000   -0.001445
         Rot=    1.000000    0.000000    0.000034    0.000000 Ang=   0.00 deg.
 ExpMin= 3.60D-02 ExpMax= 5.48D+03 ExpMxC= 8.25D+02 IAcc=3 IRadAn=         5 AccDes= 0.00D+00
 Harris functional with IExCor=  402 and IRadAn=       5 diagonalized for initial guess.
 HarFok:  IExCor=  402 AccDes= 0.00D+00 IRadAn=         5 IDoV= 1 UseB2=F ITyADJ=14
 ICtDFT=  3500011 ScaDFX=  1.000000  1.000000  1.000000  1.000000
 FoFCou: FMM=F IPFlag=           0 FMFlag=      100000 FMFlg1=           0
         NFxFlg=           0 DoJE=T BraDBF=F KetDBF=T FulRan=T
         wScrn=  0.000000 ICntrl=       500 IOpCl=  0 I1Cent=   200000004 NGrid=           0
         NMat0=    1 NMatS0=      1 NMatT0=    0 NMatD0=    1 NMtDS0=    0 NMtDT0=    0
 Symmetry not used in FoFCou.
 Requested convergence on RMS density matrix=1.00D-08 within 128 cycles.
 Requested convergence on MAX density matrix=1.00D-06.
 Requested convergence on             energy=1.00D-06.
 No special actions if energy rises.
 SCF Done:  E(RB3LYP) =  -425.276142603     A.U. after   11 cycles
            NFock= 11  Conv=0.77D-08     -V/T= 2.0109
 Variable Step   Value    
 -------- ---- -----------
     7      20    4.724315
 ---------------------------------------------------------------------------------------------------
                            Z-MATRIX (ANGSTROMS AND DEGREES)
   CD    Cent   Atom    N1       Length/X        N2       Alpha/Y        N3        Beta/Z          J
 ---------------------------------------------------------------------------------------------------
      1      1  C 
      2      2  C        1   1.401724(     1)
      3      3  C        2   1.406789(     2)      1  118.055(    22)
      4      4  C        3   1.400915(     3)      2  122.112(    23)      1   -0.009(    42)      0
      5      5  C        4   1.405746(     4)      3  117.824(    24)      2   -0.001(    43)      0
      6      6  C        5   1.404289(     5)      4  122.156(    25)      3    0.007(    44)      0
      7      7  H        3   1.087747(     6)      2  119.407(    26)      1  179.986(    45)      0
      8      8  H        1   2.500000(     7)      2  119.427(    27)      3 -179.989(    46)      0
      9      9  C        6   1.513682(     8)      5  120.963(    28)      4  179.989(    47)      0
     10     10  H        9   1.094102(     9)      6  110.528(    29)      5 -179.995(    48)      0
     11     11  H        9   1.100142(    10)      6  112.220(    30)      5   60.715(    49)      0
     12     12  H        9   1.100143(    11)      6  112.220(    31)      5  -60.706(    50)      0
     13     13  C        2   1.514771(    12)      1  121.203(    32)      6 -179.963(    51)      0
     14     14  H       13   1.097772(    13)      2  111.483(    33)      1 -120.596(    52)      0
     15     15  H       13   1.097837(    14)      2  111.482(    34)      1  119.653(    53)      0
     16     16  H       13   1.095261(    15)      2  111.193(    35)      1   -0.464(    54)      0
     17     17  C        4   1.509153(    16)      3  122.005(    36)      2 -179.998(    55)      0
     18     18  H       17   1.096757(    17)      4  111.242(    37)      3  120.656(    56)      0
     19     19  H       17   1.094569(    18)      4  110.769(    38)      3   -0.105(    57)      0
     20     20  H       17   1.096722(    19)      4  111.243(    39)      3 -120.877(    58)      0
     21     21  O        5   1.405465(    20)      4  115.754(    40)      3 -179.998(    59)      0
     22     22  H       21   0.974436(    21)      5  112.627(    41)      4 -179.993(    60)      0
 ---------------------------------------------------------------------------------------------------
                         Z-Matrix orientation:                         
 ---------------------------------------------------------------------
 Center     Atomic      Atomic             Coordinates (Angstroms)
 Number     Number       Type             X           Y           Z
 ---------------------------------------------------------------------
      1          6           0        0.000000    0.000000    0.000000
      2          6           0        0.000000    0.000000    1.401724
      3          6           0        1.241488    0.000000    2.063361
      4          6           0        2.456750   -0.000177    1.366439
      5          6           0        2.407463   -0.000387   -0.038442
      6          6           0        1.193111   -0.000277   -0.743693
      7          1           0        1.267147    0.000235    3.150805
      8          1           0       -2.177457    0.000411   -1.228283
      9          6           0        1.171532   -0.000268   -2.257221
     10          1           0        0.141536   -0.000091   -2.626230
     11          1           0        1.663642   -0.888595   -2.680325
     12          1           0        1.663947    0.887899   -2.680306
     13          6           0       -1.295637   -0.000528    2.186489
     14          1           0       -1.370506    0.878733    2.839481
     15          1           0       -1.377295   -0.888347    2.827079
     16          1           0       -2.163344    0.007384    1.518195
     17          6           0        3.787241   -0.000228    2.078715
     18          1           0        4.383478   -0.879688    1.806822
     19          1           0        3.646388    0.001770    3.164181
     20          1           0        4.385230    0.877024    1.803694
     21          8           0        3.651135   -0.000610   -0.693127
     22          1           0        3.563909   -0.000647   -1.663651
 ---------------------------------------------------------------------
                    Distance matrix (angstroms):
                    1          2          3          4          5
     1  C    0.000000
     2  C    1.401724   0.000000
     3  C    2.408059   1.406789   0.000000
     4  C    2.811188   2.457003   1.400915   0.000000
     5  C    2.407769   2.805344   2.403554   1.405746   0.000000
     6  C    1.405914   2.454858   2.807470   2.459561   1.404289
     7  H    3.396062   2.159849   1.087747   2.144555   3.386978
     8  H    2.500000   3.414419   4.745957   5.311164   4.736793
     9  C    2.543135   3.841922   4.321148   3.844828   2.539784
    10  H    2.630041   4.030439   4.816861   4.615368   3.439632
    11  H    3.277414   4.496713   4.844623   4.218366   2.884740
    12  H    3.277366   4.496671   4.844503   4.218218   2.884668
    13  C    2.541537   1.514771   2.540110   3.840949   4.320100
    14  H    3.273089   2.172005   2.863048   4.194070   4.829942
    15  H    3.267794   2.172036   2.868876   4.197882   4.829501
    16  H    2.642920   2.166490   3.448208   4.622592   4.828608
    17  C    4.320214   3.847273   2.545800   1.509153   2.527082
    18  H    4.822171   4.489191   3.272883   2.163275   2.843028
    19  H    4.827856   4.049988   2.644873   2.155718   3.433910
    20  H    4.822108   4.490100   3.274098   2.163264   2.841633
    21  O    3.716344   4.209416   3.661233   2.380834   1.405465
    22  H    3.933088   4.700848   4.391385   3.226027   1.994661
                    6          7          8          9         10
     6  C    0.000000
     7  H    3.895202   0.000000
     8  H    3.405226   5.571509   0.000000
     9  C    1.513682   5.408872   3.503490   0.000000
    10  H    2.156329   5.885672   2.707764   1.094102   0.000000
    11  H    2.181984   5.911794   4.201523   1.100142   1.763284
    12  H    2.181975   5.911621   4.201475   1.100143   1.763289
    13  C    3.844455   2.738205   3.526795   5.082665   5.022721
    14  H    4.492652   2.797480   4.239024   5.762896   5.738692
    15  H    4.488437   2.808461   4.228016   5.756328   5.730133
    16  H    4.047467   3.799175   2.746524   5.037383   4.742234
    17  C    3.833470   2.738659   6.820107   5.063820   5.952114
    18  H    4.178149   3.506006   7.282328   5.254181   6.198363
    19  H    4.614114   2.379279   7.294582   5.959574   6.768519
    20  H    4.177135   3.507978   7.282184   5.252478   6.196975
    21  O    2.458543   4.523187   5.853108   2.931692   4.006765
    22  H    2.543031   5.334239   5.757850   2.464912   3.555164
                   11         12         13         14         15
    11  H    0.000000
    12  H    1.776494   0.000000
    13  C    5.764709   5.764906   0.000000
    14  H    6.541999   6.298892   1.097772   0.000000
    15  H    6.291168   6.537239   1.097837   1.767137   0.000000
    16  H    5.751188   5.748989   1.095261   1.770208   1.770137
    17  C    5.286523   5.286343   5.084020   5.287125   5.293509
    18  H    5.247101   5.536653   5.759289   6.104651   5.850428
    19  H    6.235566   6.234848   5.037807   5.103305   5.113056
    20  H    5.534517   5.245165   5.760979   5.848193   6.113146
    21  O    2.947473   2.947413   5.723875   6.202374   6.202019
    22  H    2.330899   2.330870   6.199900   6.737949   6.735738
                   16         17         18         19         20
    16  H    0.000000
    17  C    5.976931   0.000000
    18  H    6.612948   1.096757   0.000000
    19  H    6.038401   1.094569   1.778397   0.000000
    20  H    6.612232   1.096722   1.756716   1.778449   0.000000
    21  O    6.220786   2.775182   2.749336   3.857312   2.746498
    22  H    6.551766   3.749024   3.672682   4.828538   3.669790
                   21         22
    21  O    0.000000
    22  H    0.974436   0.000000
 Symmetry turned off by external request.
 Stoichiometry    C9H12O
 Framework group  C1[X(C9H12O)]
 Deg. of freedom    60
 Full point group                 C1      NOp   1
 Rotational constants (GHZ):           1.6918909           1.2335265           0.7230327
 Standard basis: 6-31++G(d,p) (6D, 7F)
   262 basis functions,   416 primitive gaussians,   262 cartesian basis functions
    37 alpha electrons       37 beta electrons
       nuclear repulsion energy       507.2252770097 Hartrees.
 NAtoms=   22 NActive=   22 NUniq=   22 SFac= 1.00D+00 NAtFMM=   60 NAOKFM=F Big=F
 Integral buffers will be    131072 words long.
 Raffenetti 2 integral format.
 Two-electron integral symmetry is turned off.
 One-electron integrals computed using PRISM.
 NBasis=   262 RedAO= T EigKep=  1.34D-06  NBF=   262
 NBsUse=   261 1.00D-06 EigRej=  6.41D-07 NBFU=   261
 Initial guess from the checkpoint file:  "C:\Users\Administrator\Desktop\dataset_dft\C8H6O3\C8H6O3.chk"
 B after Tr=    -0.002160    0.000000   -0.001444
         Rot=    1.000000    0.000000    0.000034    0.000000 Ang=   0.00 deg.
 ExpMin= 3.60D-02 ExpMax= 5.48D+03 ExpMxC= 8.25D+02 IAcc=3 IRadAn=         5 AccDes= 0.00D+00
 Harris functional with IExCor=  402 and IRadAn=       5 diagonalized for initial guess.
 HarFok:  IExCor=  402 AccDes= 0.00D+00 IRadAn=         5 IDoV= 1 UseB2=F ITyADJ=14
 ICtDFT=  3500011 ScaDFX=  1.000000  1.000000  1.000000  1.000000
 FoFCou: FMM=F IPFlag=           0 FMFlag=      100000 FMFlg1=           0
         NFxFlg=           0 DoJE=T BraDBF=F KetDBF=T FulRan=T
         wScrn=  0.000000 ICntrl=       500 IOpCl=  0 I1Cent=   200000004 NGrid=           0
         NMat0=    1 NMatS0=      1 NMatT0=    0 NMatD0=    1 NMtDS0=    0 NMtDT0=    0
 Symmetry not used in FoFCou.
 Requested convergence on RMS density matrix=1.00D-08 within 128 cycles.
 Requested convergence on MAX density matrix=1.00D-06.
 Requested convergence on             energy=1.00D-06.
 No special actions if energy rises.
 SCF Done:  E(RB3LYP) =  -425.267303119     A.U. after   11 cycles
            NFock= 11  Conv=0.69D-08     -V/T= 2.0108
 Scan completed.
 
 Summary of the potential surface scan:
   N      B7          SCF    
 ----  ---------  -----------
    1     0.5000   -424.52566
    2     0.6000   -424.98288
    3     0.7000   -425.22830
    4     0.8000   -425.35789
    5     0.9000   -425.42231
    6     1.0000   -425.44942
    7     1.1000   -425.45512
    8     1.2000   -425.44875
    9     1.3000   -425.43581
   10     1.4000   -425.41957
   11     1.5000   -425.40199
   12     1.6000   -425.38423
   13     1.7000   -425.36698
   14     1.8000   -425.35064
   15     1.9000   -425.33540
   16     2.0000   -425.32133
   17     2.1000   -425.30842
   18     2.2000   -425.29662
   19     2.3000   -425.28589
   20     2.4000   -425.27614
   21     2.5000   -425.26730
 ----  ---------  -----------
  
 1|1|UNPC-BF-202112021916|Scan|RB3LYP|6-31++G(d,p)|C9H12O1|ADMINISTRATO
 R|21-Mar-2023|1||# scan b3lyp/6-31++g(d,p) nosymm||Title Card Required
 ||0,1|C|C,1,B1|C,2,B2,1,A1|C,3,B3,2,A2,1,D1,0|C,4,B4,3,A3,2,D2,0|C,5,B
 5,4,A4,3,D3,0|H,3,B6,2,A5,1,D4,0|H,1,B7,2,A6,3,D5,0|C,6,B8,5,A7,4,D6,0
 |H,9,B9,6,A8,5,D7,0|H,9,B10,6,A9,5,D8,0|H,9,B11,6,A10,5,D9,0|C,2,B12,1
 ,A11,6,D10,0|H,13,B13,2,A12,1,D11,0|H,13,B14,2,A13,1,D12,0|H,13,B15,2,
 A14,1,D13,0|C,4,B16,3,A15,2,D14,0|H,17,B17,4,A16,3,D15,0|H,17,B18,4,A1
 7,3,D16,0|H,17,B19,4,A18,3,D17,0|O,5,B20,4,A19,3,D18,0|H,21,B21,5,A20,
 4,D19,0||B1=1.40172372|B2=1.4067889|B3=1.40091456|B4=1.40574604|B5=1.4
 0428866|B6=1.0877472|B7=0.5,s,20,0.1|B8=1.51368221|B9=1.09410205|B10=1
 .10014242|B11=1.10014305|B12=1.5147712|B13=1.0977718|B14=1.09783685|B1
 5=1.09526065|B16=1.50915325|B17=1.09675659|B18=1.09456869|B19=1.096721
 5|B20=1.40546547|B21=0.97443585|A1=118.05489243|A2=122.11195318|A3=117
 .82388104|A4=122.15571465|A5=119.40658646|A6=119.42693933|A7=120.96328
 413|A8=110.52751361|A9=112.22032978|A10=112.2195867|A11=121.2032423|A1
 2=111.48295131|A13=111.48150097|A14=111.19313304|A15=122.00457753|A16=
 111.2415396|A17=110.7686959|A18=111.24276989|A19=115.75361474|A20=112.
 62722068|D1=-0.00852575|D2=-0.00133353|D3=0.00703282|D4=179.98577911|D
 5=-179.9891797|D6=179.98938788|D7=-179.99524881|D8=60.71536748|D9=-60.
 70593948|D10=-179.96336306|D11=-120.59576262|D12=119.65332994|D13=-0.4
 6377751|D14=-179.99769154|D15=120.65588323|D16=-0.10528748|D17=-120.87
 650648|D18=-179.99764726|D19=-179.99345926||Version=EM64W-G16RevA.03|H
 F=-424.5256597,-424.9828803,-425.2283025,-425.35789,-425.422309,-425.4
 494154,-425.4551225,-425.4487506,-425.4358099,-425.4195707,-425.401986
 ,-425.3842258,-425.3669824,-425.3506441,-425.335403,-425.321328,-425.3
 084162,-425.2966249,-425.2858912,-425.2761426,-425.2673031|RMSD=9.704e
 -009,9.651e-009,6.635e-009,7.523e-009,8.400e-009,8.219e-009,7.683e-009
 ,7.070e-009,6.460e-009,6.124e-009,6.309e-009,6.643e-009,6.601e-009,6.2
 86e-009,5.922e-009,5.475e-009,4.878e-009,4.334e-009,8.724e-009,7.692e-
 009,6.854e-009|PG=C01 [X(C9H12O1)]||@


 YOU KNOW YOU'VE SPOKEN TOO LONG WHEN THE AUDIENCE STOPS LOOKING AT
 THEIR WATCHES AND STARTS SHAKING THEM.
 Job cpu time:       0 days  0 hours 27 minutes 44.0 seconds.
 Elapsed time:       0 days  0 hours 27 minutes 22.0 seconds.
 File lengths (MBytes):  RWF=     47 Int=      0 D2E=      0 Chk=      7 Scr=      1
 Normal termination of Gaussian 16 at Tue Mar 21 21:16:57 2023.
