 Entering Link 1 = I:\G16W\l1.exe PID=      9376.
  
 Copyright (c) 1988,1990,1992,1993,1995,1998,2003,2009,2016,
            Gaussian, Inc.  All Rights Reserved.
  
 This is part of the Gaussian(R) 16 program.  It is based on
 the Gaussian(R) 09 system (copyright 2009, Gaussian, Inc.),
 the Gaussian(R) 03 system (copyright 2003, Gaussian, Inc.),
 the Gaussian(R) 98 system (copyright 1998, Gaussian, Inc.),
 the Gaussian(R) 94 system (copyright 1995, Gaussian, Inc.),
 the Gaussian 92(TM) system (copyright 1992, Gaussian, Inc.),
 the Gaussian 90(TM) system (copyright 1990, Gaussian, Inc.),
 the Gaussian 88(TM) system (copyright 1988, Gaussian, Inc.),
 the Gaussian 86(TM) system (copyright 1986, Carnegie Mellon
 University), and the Gaussian 82(TM) system (copyright 1983,
 Carnegie Mellon University). Gaussian is a federally registered
 trademark of Gaussian, Inc.
  
 This software contains proprietary and confidential information,
 including trade secrets, belonging to Gaussian, Inc.
  
 This software is provided under written license and may be
 used, copied, transmitted, or stored only in accord with that
 written license.
  
 The following legend is applicable only to US Government
 contracts under FAR:
  
                    RESTRICTED RIGHTS LEGEND
  
 Use, reproduction and disclosure by the US Government is
 subject to restrictions as set forth in subparagraphs (a)
 and (c) of the Commercial Computer Software - Restricted
 Rights clause in FAR 52.227-19.
  
 Gaussian, Inc.
 340 Quinnipiac St., Bldg. 40, Wallingford CT 06492
  
  
 ---------------------------------------------------------------
 Warning -- This program may not be used in any manner that
 competes with the business of Gaussian, Inc. or will provide
 assistance to any competitor of Gaussian, Inc.  The licensee
 of this program is prohibited from giving any competitor of
 Gaussian, Inc. access to this program.  By using this program,
 the user acknowledges that Gaussian, Inc. is engaged in the
 business of creating and licensing software in the field of
 computational chemistry and represents and warrants to the
 licensee that it is not a competitor of Gaussian, Inc. and that
 it will not use this program in any manner prohibited above.
 ---------------------------------------------------------------
  

 Cite this work as:
 Gaussian 16, Revision A.03,
 M. J. Frisch, G. W. Trucks, H. B. Schlegel, G. E. Scuseria, 
 M. A. Robb, J. R. Cheeseman, G. Scalmani, V. Barone, 
 G. A. Petersson, H. Nakatsuji, X. Li, M. Caricato, A. V. Marenich, 
 J. Bloino, B. G. Janesko, R. Gomperts, B. Mennucci, H. P. Hratchian, 
 J. V. Ortiz, A. F. Izmaylov, J. L. Sonnenberg, D. Williams-Young, 
 F. Ding, F. Lipparini, F. Egidi, J. Goings, B. Peng, A. Petrone, 
 T. Henderson, D. Ranasinghe, V. G. Zakrzewski, J. Gao, N. Rega, 
 G. Zheng, W. Liang, M. Hada, M. Ehara, K. Toyota, R. Fukuda, 
 J. Hasegawa, M. Ishida, T. Nakajima, Y. Honda, O. Kitao, H. Nakai, 
 T. Vreven, K. Throssell, J. A. Montgomery, Jr., J. E. Peralta, 
 F. Ogliaro, M. J. Bearpark, J. J. Heyd, E. N. Brothers, K. N. Kudin, 
 V. N. Staroverov, T. A. Keith, R. Kobayashi, J. Normand, 
 K. Raghavachari, A. P. Rendell, J. C. Burant, S. S. Iyengar, 
 J. Tomasi, M. Cossi, J. M. Millam, M. Klene, C. Adamo, R. Cammi, 
 J. W. Ochterski, R. L. Martin, K. Morokuma, O. Farkas, 
 J. B. Foresman, and D. J. Fox, Gaussian, Inc., Wallingford CT, 2016.
 
 ******************************************
 Gaussian 16:  EM64W-G16RevA.03 17-Dec-2016
                22-Mar-2023 
 ******************************************
 %nprocshared=16
 Will use up to   16 processors via shared memory.
 %mem=300MW
 %chk=C:\Users\Administrator\Desktop\dataset_dft\C12H8O1\C12H8O1.chk
 --------------------------------
 # scan b3lyp/6-31++g(d,p) nosymm
 --------------------------------
 1/38=1,60=1,172=1/1,8;
 2/12=2,15=1,17=6,18=5,29=3,40=1/2;
 3/5=1,6=6,7=1111,11=2,25=1,30=1,74=-5/1,2,3;
 4//1;
 5/5=2,38=5/2;
 6/7=2,8=2,9=2,10=2,18=1,28=1/1;
 1/60=1/8(1);
 99/9=1/99;
 2/15=1,29=3/2;
 3/5=1,6=6,7=1111,11=2,25=1,30=1,74=-5/1,2,3;
 4/5=5,16=3,69=1/1;
 5/5=2,38=5/2;
 1/60=1/8(-4);
 99/9=1/99;
 -------------------
 Title Card Required
 -------------------
 Symbolic Z-matrix:
 Charge =  0 Multiplicity = 1
 C(PDBName=C,ResName=MOL,ResNum=1)
 C(PDBName=C,ResName=MOL,ResNum=1) 1    B1
 C(PDBName=C,ResName=MOL,ResNum=1) 2    B2       1    A1
 C(PDBName=C,ResName=MOL,ResNum=1) 3    B3       2    A2       1    D1       0
 C(PDBName=C,ResName=MOL,ResNum=1) 4    B4       3    A3       2    D2       0
 C(PDBName=C,ResName=MOL,ResNum=1) 1    B5       2    A4       3    D3       0
 H(PDBName=H,ResName=MOL,ResNum=1) 2    B6       1    A5       6    D4       0
 H(PDBName=H,ResName=MOL,ResNum=1) 4    B7       3    A6       2    D5       0
 H(PDBName=H,ResName=MOL,ResNum=1) 5    B8       4    A7       3    D6       0
 H(PDBName=H,ResName=MOL,ResNum=1) 1    B9       6    A8       5    D7       0
 C(PDBName=C,ResName=MOL,ResNum=1) 3    B10      2    A9       1    D8       0
 C(PDBName=C,ResName=MOL,ResNum=1) 11   B11      3    A10      2    D9       0
 C(PDBName=C,ResName=MOL,ResNum=1) 12   B12      11   A11      3    D10      0
 C(PDBName=C,ResName=MOL,ResNum=1) 13   B13      12   A12      11   D11      0
 C(PDBName=C,ResName=MOL,ResNum=1) 14   B14      13   A13      12   D12      0
 C(PDBName=C,ResName=MOL,ResNum=1) 11   B15      3    A14      2    D13      0
 H(PDBName=H,ResName=MOL,ResNum=1) 13   B16      12   A15      11   D14      0
 H(PDBName=H,ResName=MOL,ResNum=1) 14   B17      13   A16      12   D15      0
 H(PDBName=H,ResName=MOL,ResNum=1) 16   B18      11   A17      3    D16      0
 H(PDBName=H,ResName=MOL,ResNum=1) 11   B19      3    A18      2    D17      0
 C(PDBName=C,ResName=MOL,ResNum=1) 3    B20      2    A19      1    D18      0
 H(PDBName=H,ResName=MOL,ResNum=1) 21   B21      3    A20      2    D19      0
 H(PDBName=H,ResName=MOL,ResNum=1) 21   B22      3    A21      2    D20      0
 O(PDBName=O,ResName=MOL,ResNum=1) 6    B23      1    A22      2    D21      0
 H(PDBName=H,ResName=MOL,ResNum=1) 24   B24      6    A23      1    D22      0
 O(PDBName=O,ResName=MOL,ResNum=1) 15   B25      14   A24      13   D23      0
 H(PDBName=H,ResName=MOL,ResNum=1) 26   B26      15   A25      14   D24      0
       Variables:
  B1                    1.39914                  
  B2                    1.40635                  
  B3                    1.40607                  
  B4                    1.39928                  
  B5                    1.39686                  
  B6                    1.08694                  
  B7                    1.08635                  
  B8                    1.08745                  
  B9                    1.08409                  
  B10                   3.1241                   
  B11                   1.40606                  
  B12                   1.40635                  
  B13                   1.39915                  
  B14                   1.39686                  
  B15                   1.39928                  
  B16                   1.08694                  
  B17                   1.08409                  
  B18                   1.08745                  
  B19                   1.08635                  
  B20                   1.     Scan 20    0.1    
  B21                   1.09924                  
  B22                   1.09924                  
  B23                   1.40034                  
  B24                   0.97615                  
  B25                   1.40034                  
  B26                   0.97615                  
  A1                  121.50472                  
  A2                  117.99972                  
  A3                  121.18861                  
  A4                  119.34816                  
  A5                  119.08162                  
  A6                  119.59788                  
  A7                  120.02454                  
  A8                  119.17457                  
  A9                  118.86085                  
  A10                  54.30085                  
  A11                 118.00001                  
  A12                 121.50469                  
  A13                 119.34803                  
  A14                 159.11847                  
  A15                 119.41407                  
  A16                 121.47678                  
  A17                 120.02511                  
  A18                  69.10058                  
  A19                 120.94121                  
  A20                 109.42831                  
  A21                 108.34488                  
  A22                 116.91155                  
  A23                 112.48411                  
  A24                 116.91179                  
  A25                 112.48409                  
  D1                   -0.1224                   
  D2                    0.19866                  
  D3                   -0.01058                  
  D4                  179.9038                   
  D5                 -179.32569                  
  D6                  179.95948                  
  D7                 -179.85173                  
  D8                 -118.04155                  
  D9                 -136.57792                  
  D10                -155.29605                  
  D11                  -0.12435                  
  D12                  -0.0087                   
  D13                 138.84405                  
  D14                 179.96257                  
  D15                 179.91319                  
  D16                -109.11682                  
  D17                  21.15133                  
  D18                 178.63933                  
  D19                -110.10669                  
  D20                   4.81351                  
  D21                 179.93358                  
  D22                 179.8492                   
  D23                 179.92297                  
  D24                 179.75847                  
 
 Center=      2.00387010     -1.06584057      2.77095297
 Residue   1 PDB Number     1_0 MOL charge    0.00000000 layers R        AvRTP=      0.00000000     90.00000000    153.43494882
 Scan the potential surface.
 Variable   Value     No. Steps Step-Size
 -------- ----------- --------- ---------
    20       1.000000      20      0.1000
 A total of     21 points will be computed.
 ---------------------------------------------------------------------------------------------------
                            Z-MATRIX (ANGSTROMS AND DEGREES)
   CD    Cent   Atom    N1       Length/X        N2       Alpha/Y        N3        Beta/Z          J
 ---------------------------------------------------------------------------------------------------
      1      1  C 
      2      2  C        1   1.399144(     1)
      3      3  C        2   1.406351(     2)      1  121.505(    27)
      4      4  C        3   1.406066(     3)      2  118.000(    28)      1   -0.122(    52)      0
      5      5  C        4   1.399281(     4)      3  121.189(    29)      2    0.199(    53)      0
      6      6  C        1   1.396858(     5)      2  119.348(    30)      3   -0.011(    54)      0
      7      7  H        2   1.086943(     6)      1  119.082(    31)      6  179.904(    55)      0
      8      8  H        4   1.086351(     7)      3  119.598(    32)      2 -179.326(    56)      0
      9      9  H        5   1.087447(     8)      4  120.025(    33)      3  179.959(    57)      0
     10     10  H        1   1.084093(     9)      6  119.175(    34)      5 -179.852(    58)      0
     11     11  C        3   3.124095(    10)      2  118.861(    35)      1 -118.042(    59)      0
     12     12  C       11   1.406064(    11)      3   54.301(    36)      2 -136.578(    60)      0
     13     13  C       12   1.406350(    12)     11  118.000(    37)      3 -155.296(    61)      0
     14     14  C       13   1.399145(    13)     12  121.505(    38)     11   -0.124(    62)      0
     15     15  C       14   1.396858(    14)     13  119.348(    39)     12   -0.009(    63)      0
     16     16  C       11   1.399281(    15)      3  159.118(    40)      2  138.844(    64)      0
     17     17  H       13   1.086943(    16)     12  119.414(    41)     11  179.963(    65)      0
     18     18  H       14   1.084093(    17)     13  121.477(    42)     12  179.913(    66)      0
     19     19  H       16   1.087447(    18)     11  120.025(    43)      3 -109.117(    67)      0
     20     20  H       11   1.086348(    19)      3   69.101(    44)      2   21.151(    68)      0
     21     21  C        3   1.000000(    20)      2  120.941(    45)      1  178.639(    69)      0
     22     22  H       21   1.099239(    21)      3  109.428(    46)      2 -110.107(    70)      0
     23     23  H       21   1.099243(    22)      3  108.345(    47)      2    4.814(    71)      0
     24     24  O        6   1.400339(    23)      1  116.912(    48)      2  179.934(    72)      0
     25     25  H       24   0.976153(    24)      6  112.484(    49)      1  179.849(    73)      0
     26     26  O       15   1.400340(    25)     14  116.912(    50)     13  179.923(    74)      0
     27     27  H       26   0.976153(    26)     15  112.484(    51)     14  179.758(    75)      0
 ---------------------------------------------------------------------------------------------------
                         Z-Matrix orientation:                         
 ---------------------------------------------------------------------
 Center     Atomic      Atomic             Coordinates (Angstroms)
 Number     Number       Type             X           Y           Z
 ---------------------------------------------------------------------
      1          6           0        0.000000    0.000000    0.000000
      2          6           0        0.000000    0.000000    1.399144
      3          6           0        1.199051    0.000000    2.134059
      4          6           0        2.410612   -0.002652    1.420523
      5          6           0        2.427544   -0.001069    0.021345
      6          6           0        1.217582    0.000225   -0.684622
      7          1           0       -0.949909    0.001419    1.927458
      8          1           0        3.352258   -0.013834    1.962127
      9          1           0        3.375581   -0.002508   -0.511351
     10          1           0       -0.924565   -0.001432   -0.566069
     11          6           0        1.812568   -2.414870    4.018726
     12          6           0        2.007049   -1.058360    4.333488
     13          6           0        2.965789   -0.738356    5.311361
     14          6           0        3.707942   -1.731262    5.960170
     15          6           0        3.493247   -3.071658    5.630845
     16          6           0        2.545636   -3.419776    4.659635
     17          1           0        3.135256    0.303152    5.572103
     18          1           0        4.447868   -1.483987    6.712913
     19          1           0        2.379498   -4.463076    4.401831
     20          1           0        1.086374   -2.690700    3.259310
     21          6           0        1.189342    0.020367    3.133804
     22          1           0        1.554195    0.996656    3.483188
     23          1           0        0.145327   -0.047421    3.471106
     24          8           0        1.158049   -0.001234   -2.083693
     25          1           0        2.043309    0.001391   -2.495011
     26          8           0        4.264791   -4.022632    6.310050
     27          1           0        4.060098   -4.936077    6.033291
 ---------------------------------------------------------------------
                    Distance matrix (angstroms):
                    1          2          3          4          5
     1  C    0.000000
     2  C    1.399144   0.000000
     3  C    2.447842   1.406351   0.000000
     4  C    2.798025   2.410708   1.406066   0.000000
     5  C    2.427638   2.791290   2.443923   1.399281   0.000000
     6  C    1.396858   2.413418   2.818742   2.419703   1.400857
     7  H    2.148819   1.086943   2.158869   3.398544   3.878204
     8  H    3.884298   3.399232   2.160105   1.086351   2.149859
     9  H    3.414093   3.878730   3.425709   2.159468   1.087447
    10  H    1.084093   2.171839   3.435177   3.882004   3.403189
    11  C    5.026645   3.997401   3.124095   3.595429   4.709956
    12  C    4.891573   3.709279   2.571084   3.124540   4.459737
    13  C    6.127939   4.964526   3.709688   3.998513   5.368200
    14  C    7.229781   6.127730   4.891926   5.027878   6.316853
    15  C    7.303716   6.288494   5.189020   5.321438   6.483111
    16  C    6.315641   5.367116   4.459450   4.710288   5.763266
    17  H    6.400786   5.228319   3.957390   4.225428   5.603955
    18  H    8.188342   7.086741   5.807145   5.861242   7.145477
    19  H    6.705012   5.881938   5.143471   5.365124   6.253038
    20  H    4.363849   3.446780   2.918690   3.515728   4.417836
    21  C    3.351966   2.103330   1.000000   2.104130   3.349777
    22  H    3.942264   2.784257   1.714526   2.446764   3.707095
    23  H    3.474471   2.077594   1.703020   3.055882   4.136607
    24  O    2.383874   3.670318   4.217952   3.721350   2.458212
    25  H    3.224933   4.397676   4.705429   3.932726   2.545524
    26  O    8.613172   7.647680   6.558905   6.595885   7.687409
    27  H    8.789189   7.894591   6.910460   6.952490   7.947517
                    6          7          8          9         10
     6  C    0.000000
     7  H    3.394257   0.000000
     8  H    3.400341   4.302334   0.000000
     9  H    2.164946   4.965649   2.473614   0.000000
    10  H    2.145426   2.493657   4.968214   4.300494   0.000000
    11  C    5.320542   4.224114   3.516422   5.365081   5.859772
    12  C    5.188958   3.956730   2.919585   5.143945   5.806644
    13  C    6.289161   5.227883   3.448429   5.883314   7.086755
    14  C    7.304328   6.400042   4.365824   6.706687   8.188055
    15  C    7.382427   6.549849   4.778039   6.867321   8.206406
    16  C    6.482377   5.602518   4.419008   6.253449   7.143903
    17  H    6.551018   5.482978   3.630357   6.095867   7.365601
    18  H    8.207384   7.364985   5.092316   7.452152   9.167584
    19  H    6.866084   6.094194   5.166641   6.710306   7.450043
    20  H    4.776284   3.628744   3.739322   5.165726   5.090144
    21  C    3.818584   2.456018   2.460123   4.250567   4.261237
    22  H    4.298468   3.111484   2.562762   4.502457   4.851486
    23  H    4.292095   1.893351   3.544369   5.128014   4.176790
    24  O    1.400339   4.531316   4.602540   2.718402   2.576910
    25  H    1.989808   5.340186   4.645392   2.389534   3.539647
    26  O    8.625212   7.911586   5.983946   7.967660   9.506865
    27  H    8.807799   8.144747   6.426810   8.224415   9.630636
                   11         12         13         14         15
    11  C    0.000000
    12  C    1.406064   0.000000
    13  C    2.410710   1.406350   0.000000
    14  C    2.798030   2.447842   1.399145   0.000000
    15  C    2.419707   2.818739   2.413417   1.396858   0.000000
    16  C    1.399281   2.443917   2.791287   2.427638   1.400857
    17  H    3.398548   2.158873   1.086943   2.148816   3.394253
    18  H    3.882009   3.435174   2.171836   1.084093   2.145431
    19  H    2.159474   3.425709   3.878726   3.414087   2.164937
    20  H    1.086348   2.160100   3.399230   3.884300   3.400345
    21  C    2.664934   1.808739   2.910872   4.171318   4.593888
    22  H    3.462956   2.269620   2.888785   4.267974   4.992347
    23  H    2.946929   2.287293   3.437868   4.660793   5.001904
    24  O    6.594964   6.558851   7.648406   8.613867   8.625239
    25  H    6.951283   6.910339   7.895420   8.789948   8.807695
    26  O    3.721352   4.217950   3.670321   2.383878   1.400340
    27  H    3.932728   4.705425   4.397676   3.224933   1.989809
                   16         17         18         19         20
    16  C    0.000000
    17  H    3.878200   0.000000
    18  H    3.403192   2.493645   0.000000
    19  H    1.087447   4.965646   4.300491   0.000000
    20  H    2.149862   4.302334   4.968216   2.473630   0.000000
    21  C    4.000284   3.132387   5.068638   4.808911   2.715923
    22  H    4.676735   2.710030   4.995803   5.597651   3.723650
    23  H    4.306606   3.671071   5.575382   5.035452   2.813778
    24  O    7.686632   7.912851   9.507984   7.966305   5.982144
    25  H    7.946426   8.146271   9.631933   8.222587   6.424585
    26  O    2.458210   4.531316   2.576924   2.718385   4.602542
    27  H    2.545525   5.340182   3.539658   2.389520   4.645398
                   21         22         23         24         25
    21  C    0.000000
    22  H    1.099239   0.000000
    23  H    1.099243   1.753611   0.000000
    24  O    5.217636   5.669470   5.646551   0.000000
    25  H    5.693258   6.080186   6.260933   0.976153   0.000000
    26  O    5.991057   6.366453   6.389983   9.812157   9.932615
    27  H    6.419859   6.926751   6.766770   9.932774  10.058726
                   26         27
    26  O    0.000000
    27  H    0.976153   0.000000
 Symmetry turned off by external request.
 Stoichiometry    C13H12O2
 Framework group  C1[X(C13H12O2)]
 Deg. of freedom    75
 Full point group                 C1      NOp   1
 Rotational constants (GHZ):           1.6890249           0.2505146           0.2422481
 Standard basis: 6-31++G(d,p) (6D, 7F)
   357 basis functions,   576 primitive gaussians,   357 cartesian basis functions
    53 alpha electrons       53 beta electrons
       nuclear repulsion energy       888.6526900923 Hartrees.
 NAtoms=   27 NActive=   27 NUniq=   27 SFac= 1.00D+00 NAtFMM=   60 NAOKFM=F Big=F
 Integral buffers will be    131072 words long.
 Raffenetti 2 integral format.
 Two-electron integral symmetry is turned off.
 One-electron integrals computed using PRISM.
 NBasis=   357 RedAO= T EigKep=  1.05D-06  NBF=   357
 NBsUse=   355 1.00D-06 EigRej=  7.03D-07 NBFU=   355
 ExpMin= 3.60D-02 ExpMax= 5.48D+03 ExpMxC= 8.25D+02 IAcc=3 IRadAn=         5 AccDes= 0.00D+00
 Harris functional with IExCor=  402 and IRadAn=       5 diagonalized for initial guess.
 HarFok:  IExCor=  402 AccDes= 0.00D+00 IRadAn=         5 IDoV= 1 UseB2=F ITyADJ=14
 ICtDFT=  3500011 ScaDFX=  1.000000  1.000000  1.000000  1.000000
 FoFCou: FMM=F IPFlag=           0 FMFlag=      100000 FMFlg1=           0
         NFxFlg=           0 DoJE=T BraDBF=F KetDBF=T FulRan=T
         wScrn=  0.000000 ICntrl=       500 IOpCl=  0 I1Cent=   200000004 NGrid=           0
         NMat0=    1 NMatS0=      1 NMatT0=    0 NMatD0=    1 NMtDS0=    0 NMtDT0=    0
 Symmetry not used in FoFCou.
 Requested convergence on RMS density matrix=1.00D-08 within 128 cycles.
 Requested convergence on MAX density matrix=1.00D-06.
 Requested convergence on             energy=1.00D-06.
 No special actions if energy rises.
 SCF Done:  E(RB3LYP) =  -652.679832997     A.U. after   17 cycles
            NFock= 17  Conv=0.48D-08     -V/T= 2.0062

 **********************************************************************

            Population analysis using the SCF density.

 **********************************************************************

 Alpha  occ. eigenvalues --  -19.18996 -19.18987 -10.25985 -10.25783 -10.20853
 Alpha  occ. eigenvalues --  -10.20355 -10.20294 -10.20071 -10.19934 -10.19683
 Alpha  occ. eigenvalues --  -10.19605 -10.19495 -10.19475 -10.18140 -10.16620
 Alpha  occ. eigenvalues --   -1.05408  -1.05390  -0.92778  -0.85417  -0.82483
 Alpha  occ. eigenvalues --   -0.76006  -0.75438  -0.73993  -0.68440  -0.64919
 Alpha  occ. eigenvalues --   -0.62678  -0.60511  -0.57573  -0.55549  -0.54831
 Alpha  occ. eigenvalues --   -0.51589  -0.50706  -0.49815  -0.46208  -0.45542
 Alpha  occ. eigenvalues --   -0.44348  -0.43077  -0.42818  -0.41912  -0.41716
 Alpha  occ. eigenvalues --   -0.40828  -0.40261  -0.38846  -0.37785  -0.35856
 Alpha  occ. eigenvalues --   -0.34662  -0.34187  -0.31313  -0.29269  -0.26343
 Alpha  occ. eigenvalues --   -0.25984  -0.22874  -0.20283
 Alpha virt. eigenvalues --   -0.04164  -0.02605  -0.01599  -0.01490  -0.01292
 Alpha virt. eigenvalues --   -0.00361   0.00051   0.00931   0.01772   0.01842
 Alpha virt. eigenvalues --    0.02564   0.03425   0.04595   0.04951   0.05343
 Alpha virt. eigenvalues --    0.05667   0.06586   0.07152   0.07546   0.08241
 Alpha virt. eigenvalues --    0.08629   0.08914   0.09802   0.09999   0.10206
 Alpha virt. eigenvalues --    0.10810   0.10944   0.11391   0.11537   0.11923
 Alpha virt. eigenvalues --    0.12462   0.12565   0.12752   0.12886   0.13272
 Alpha virt. eigenvalues --    0.13446   0.13693   0.14036   0.14352   0.14793
 Alpha virt. eigenvalues --    0.15114   0.15520   0.15966   0.16464   0.16980
 Alpha virt. eigenvalues --    0.17080   0.17217   0.18226   0.18305   0.18447
 Alpha virt. eigenvalues --    0.19375   0.19556   0.19772   0.20005   0.21071
 Alpha virt. eigenvalues --    0.21745   0.22388   0.23118   0.23450   0.24007
 Alpha virt. eigenvalues --    0.24561   0.24857   0.25299   0.25768   0.26393
 Alpha virt. eigenvalues --    0.26767   0.27398   0.28037   0.28394   0.28628
 Alpha virt. eigenvalues --    0.28693   0.28987   0.29287   0.29527   0.29741
 Alpha virt. eigenvalues --    0.30424   0.31177   0.31685   0.31799   0.32108
 Alpha virt. eigenvalues --    0.32329   0.33190   0.33537   0.33929   0.34745
 Alpha virt. eigenvalues --    0.35460   0.36369   0.36982   0.37919   0.38031
 Alpha virt. eigenvalues --    0.39041   0.39495   0.41234   0.41843   0.42115
 Alpha virt. eigenvalues --    0.42389   0.43879   0.45742   0.46320   0.55654
 Alpha virt. eigenvalues --    0.56645   0.59149   0.59737   0.62356   0.66099
 Alpha virt. eigenvalues --    0.67394   0.68250   0.69187   0.70590   0.71306
 Alpha virt. eigenvalues --    0.71965   0.72544   0.72581   0.73738   0.74615
 Alpha virt. eigenvalues --    0.75150   0.76297   0.76735   0.76940   0.77623
 Alpha virt. eigenvalues --    0.79109   0.80473   0.81262   0.82885   0.83057
 Alpha virt. eigenvalues --    0.84256   0.87726   0.88080   0.89568   0.90935
 Alpha virt. eigenvalues --    0.92585   0.97754   0.98579   0.99468   0.99789
 Alpha virt. eigenvalues --    1.00513   1.01448   1.01922   1.02614   1.03552
 Alpha virt. eigenvalues --    1.04148   1.04724   1.06684   1.08743   1.10433
 Alpha virt. eigenvalues --    1.11364   1.13161   1.14045   1.14680   1.15900
 Alpha virt. eigenvalues --    1.16466   1.18053   1.19167   1.19857   1.20569
 Alpha virt. eigenvalues --    1.21431   1.22412   1.23009   1.23645   1.25711
 Alpha virt. eigenvalues --    1.26648   1.28343   1.28584   1.30589   1.32156
 Alpha virt. eigenvalues --    1.32930   1.34134   1.35278   1.36736   1.38138
 Alpha virt. eigenvalues --    1.38935   1.39546   1.40376   1.41428   1.41733
 Alpha virt. eigenvalues --    1.42305   1.42789   1.44092   1.46335   1.47848
 Alpha virt. eigenvalues --    1.50118   1.54129   1.56053   1.59946   1.60066
 Alpha virt. eigenvalues --    1.62886   1.69485   1.73075   1.75976   1.79961
 Alpha virt. eigenvalues --    1.80318   1.83479   1.84908   1.87423   1.87797
 Alpha virt. eigenvalues --    1.88799   1.90542   1.91193   1.92035   1.92520
 Alpha virt. eigenvalues --    1.94444   1.95993   1.96679   1.97134   1.98368
 Alpha virt. eigenvalues --    1.99103   1.99743   2.01077   2.03470   2.05070
 Alpha virt. eigenvalues --    2.07297   2.08053   2.09306   2.15289   2.15395
 Alpha virt. eigenvalues --    2.17286   2.21819   2.25028   2.26069   2.26495
 Alpha virt. eigenvalues --    2.27394   2.29464   2.29883   2.31674   2.32107
 Alpha virt. eigenvalues --    2.33354   2.34093   2.40234   2.40547   2.40863
 Alpha virt. eigenvalues --    2.41577   2.44822   2.44969   2.45376   2.47461
 Alpha virt. eigenvalues --    2.49935   2.50363   2.50746   2.52104   2.52794
 Alpha virt. eigenvalues --    2.53791   2.56083   2.57235   2.58276   2.59345
 Alpha virt. eigenvalues --    2.59613   2.60332   2.62032   2.62740   2.66443
 Alpha virt. eigenvalues --    2.68405   2.69056   2.70726   2.71999   2.73403
 Alpha virt. eigenvalues --    2.75661   2.77459   2.80411   2.80834   2.83701
 Alpha virt. eigenvalues --    2.85008   2.91879   2.92956   2.99690   3.01491
 Alpha virt. eigenvalues --    3.02837   3.06147   3.06765   3.09284   3.17864
 Alpha virt. eigenvalues --    3.19628   3.24387   3.30166   3.30224   3.30832
 Alpha virt. eigenvalues --    3.33547   3.37398   3.39542   3.47438   3.48756
 Alpha virt. eigenvalues --    3.50673   3.55193   3.55310   3.69331   3.71427
 Alpha virt. eigenvalues --    3.82266   4.15952   4.28276   4.29379   4.29652
 Alpha virt. eigenvalues --    4.33737   4.36133   4.41183   4.42815   4.47822
 Alpha virt. eigenvalues --    4.50832   4.50870   4.56445   4.56740   4.74481
 Alpha virt. eigenvalues --    4.84714   5.10755
          Condensed to atoms (all electrons):
               1          2          3          4          5          6
     1  C   12.667372  -4.232882  -0.692789  -0.255962  -0.877658  -2.074163
     2  C   -4.232882  21.619730  -0.524983 -11.878762   2.372620  -0.031631
     3  C   -0.692789  -0.524983  21.594028 -10.585447   1.457487  -2.452945
     4  C   -0.255962 -11.878762 -10.585447  32.838791  -7.993522   5.040893
     5  C   -0.877658   2.372620   1.457487  -7.993522  12.966658  -3.349199
     6  C   -2.074163  -0.031631  -2.452945   5.040893  -3.349199   9.710574
     7  H   -0.142996   0.780138  -0.326077   0.056459  -0.033707   0.118697
     8  H    0.003803  -0.066073  -0.439254   1.074853  -0.382996   0.108291
     9  H    0.040516   0.105029   0.159836  -0.305570   0.557275  -0.295620
    10  H    0.470611  -0.175994   0.029037   0.056306   0.014014  -0.135539
    11  C    0.339086  -0.735168  -0.147493   0.683001  -0.104999   0.033351
    12  C    0.289473  -0.201963   0.211571  -0.019522  -0.092338  -0.151514
    13  C    0.270325  -1.270557  -2.981609   0.795813   0.650873  -0.146358
    14  C   -0.212490   0.636075   1.561780  -0.756686  -0.140167   0.065804
    15  C    0.135085  -0.420321  -0.816868   0.481307   0.076944  -0.030316
    16  C   -0.104841   1.187755   0.705286  -1.086675  -0.038078  -0.008362
    17  H    0.023347  -0.034552  -0.101175   0.015882   0.033389  -0.010153
    18  H   -0.002826   0.007350   0.017275   0.000935  -0.004683   0.001427
    19  H   -0.007013   0.028028   0.011787  -0.025406   0.005025  -0.000243
    20  H    0.024455  -0.195288   0.035564   0.090364  -0.018432   0.001341
    21  C    0.581918   0.275597  -1.457621  -3.169979   1.094486  -0.656059
    22  H   -0.153177  -0.192556   0.010754   0.453177  -0.010660   0.075783
    23  H    0.173599  -0.460725  -0.274107   0.712585  -0.160700   0.026681
    24  O   -0.491859   0.111546   0.001353   0.040657  -0.035991   0.372795
    25  H    0.123952  -0.024586   0.005588   0.029542  -0.153419   0.025604
    26  O   -0.000294   0.001073   0.006420  -0.003084  -0.000920   0.000096
    27  H    0.000375  -0.000688  -0.001859   0.001056   0.000083  -0.000069
               7          8          9         10         11         12
     1  C   -0.142996   0.003803   0.040516   0.470611   0.339086   0.289473
     2  C    0.780138  -0.066073   0.105029  -0.175994  -0.735168  -0.201963
     3  C   -0.326077  -0.439254   0.159836   0.029037  -0.147493   0.211571
     4  C    0.056459   1.074853  -0.305570   0.056306   0.683001  -0.019522
     5  C   -0.033707  -0.382996   0.557275   0.014014  -0.104999  -0.092338
     6  C    0.118697   0.108291  -0.295620  -0.135539   0.033351  -0.151514
     7  H    0.709049   0.000069   0.001768  -0.022923  -0.018662  -0.008833
     8  H    0.000069   0.742638  -0.028177   0.002824   0.073985   0.072264
     9  H    0.001768  -0.028177   0.681019  -0.000121  -0.013259   0.010699
    10  H   -0.022923   0.002824  -0.000121   0.621909   0.010101   0.000099
    11  C   -0.018662   0.073985  -0.013259   0.010101  14.072307  -2.433435
    12  C   -0.008833   0.072264   0.010699   0.000099  -2.433435  12.599532
    13  C   -0.042793  -0.193319   0.011575   0.002010  -1.198082  -4.463284
    14  C    0.023243  -0.019350  -0.002438  -0.003121  -2.431709   2.393895
    15  C   -0.016034  -0.008855  -0.000888   0.002107   3.343221  -2.951305
    16  C    0.053069  -0.017675   0.010090  -0.002865  -4.872808   1.636970
    17  H   -0.001676  -0.009456   0.001243   0.000360   0.130148  -0.149880
    18  H    0.000357   0.001435  -0.000109  -0.000039  -0.051782   0.116743
    19  H    0.001680  -0.002757   0.000630  -0.000161  -0.255349   0.129065
    20  H   -0.017210   0.006769  -0.003541   0.000424   0.505440  -0.064852
    21  C   -0.210898  -0.092872  -0.005074   0.000980  -0.367675  -1.201465
    22  H    0.008945  -0.003281  -0.003723  -0.003047  -0.026133  -0.360536
    23  H   -0.021763   0.039771  -0.003229   0.011785   0.256422   0.018163
    24  O   -0.001525  -0.000263  -0.020152  -0.032997  -0.001123   0.001860
    25  H   -0.000065   0.001925  -0.005933   0.002603   0.000098  -0.000941
    26  O    0.000034   0.000559  -0.000011  -0.000003   0.043719   0.006268
    27  H   -0.000029   0.000033  -0.000004   0.000005   0.023786  -0.004794
              13         14         15         16         17         18
     1  C    0.270325  -0.212490   0.135085  -0.104841   0.023347  -0.002826
     2  C   -1.270557   0.636075  -0.420321   1.187755  -0.034552   0.007350
     3  C   -2.981609   1.561780  -0.816868   0.705286  -0.101175   0.017275
     4  C    0.795813  -0.756686   0.481307  -1.086675   0.015882   0.000935
     5  C    0.650873  -0.140167   0.076944  -0.038078   0.033389  -0.004683
     6  C   -0.146358   0.065804  -0.030316  -0.008362  -0.010153   0.001427
     7  H   -0.042793   0.023243  -0.016034   0.053069  -0.001676   0.000357
     8  H   -0.193319  -0.019350  -0.008855  -0.017675  -0.009456   0.001435
     9  H    0.011575  -0.002438  -0.000888   0.010090   0.001243  -0.000109
    10  H    0.002010  -0.003121   0.002107  -0.002865   0.000360  -0.000039
    11  C   -1.198082  -2.431709   3.343221  -4.872808   0.130148  -0.051782
    12  C   -4.463284   2.393895  -2.951305   1.636970  -0.149880   0.116743
    13  C   17.893064  -6.887007   3.603278  -1.557626   0.659045  -0.289911
    14  C   -6.887007  15.070093  -4.358956   1.133505  -0.351748   0.620851
    15  C    3.603278  -4.358956  10.306787  -3.201841   0.136814  -0.201210
    16  C   -1.557626   1.133505  -3.201841  12.313095  -0.069127   0.071646
    17  H    0.659045  -0.351748   0.136814  -0.069127   0.662279  -0.026742
    18  H   -0.289911   0.620851  -0.201210   0.071646  -0.026742   0.619544
    19  H   -0.035389   0.121791  -0.270603   0.575017  -0.000193   0.000781
    20  H    0.095931  -0.057738   0.094546  -0.354582  -0.001539  -0.000588
    21  C    1.611585  -0.361307   0.085848  -0.554511  -0.014038  -0.007748
    22  H   -0.088591   0.128955  -0.019931  -0.048603  -0.026545   0.003655
    23  H   -0.060617  -0.143767   0.058670  -0.046436   0.007485  -0.000746
    24  O    0.000657  -0.000130   0.000032  -0.000601   0.000027  -0.000001
    25  H   -0.000411   0.000275  -0.000110  -0.000224  -0.000038   0.000004
    26  O    0.134077  -0.556207   0.431775  -0.054400  -0.001228  -0.037293
    27  H   -0.012763   0.131458   0.027379  -0.160661   0.000243   0.002699
              19         20         21         22         23         24
     1  C   -0.007013   0.024455   0.581918  -0.153177   0.173599  -0.491859
     2  C    0.028028  -0.195288   0.275597  -0.192556  -0.460725   0.111546
     3  C    0.011787   0.035564  -1.457621   0.010754  -0.274107   0.001353
     4  C   -0.025406   0.090364  -3.169979   0.453177   0.712585   0.040657
     5  C    0.005025  -0.018432   1.094486  -0.010660  -0.160700  -0.035991
     6  C   -0.000243   0.001341  -0.656059   0.075783   0.026681   0.372795
     7  H    0.001680  -0.017210  -0.210898   0.008945  -0.021763  -0.001525
     8  H   -0.002757   0.006769  -0.092872  -0.003281   0.039771  -0.000263
     9  H    0.000630  -0.003541  -0.005074  -0.003723  -0.003229  -0.020152
    10  H   -0.000161   0.000424   0.000980  -0.003047   0.011785  -0.032997
    11  C   -0.255349   0.505440  -0.367675  -0.026133   0.256422  -0.001123
    12  C    0.129065  -0.064852  -1.201465  -0.360536   0.018163   0.001860
    13  C   -0.035389   0.095931   1.611585  -0.088591  -0.060617   0.000657
    14  C    0.121791  -0.057738  -0.361307   0.128955  -0.143767  -0.000130
    15  C   -0.270603   0.094546   0.085848  -0.019931   0.058670   0.000032
    16  C    0.575017  -0.354582  -0.554511  -0.048603  -0.046436  -0.000601
    17  H   -0.000193  -0.001539  -0.014038  -0.026545   0.007485   0.000027
    18  H    0.000781  -0.000588  -0.007748   0.003655  -0.000746  -0.000001
    19  H    0.680578  -0.034299  -0.006173   0.000018  -0.003215  -0.000004
    20  H   -0.034299   0.682367   0.085278   0.004918   0.004476   0.000191
    21  C   -0.006173   0.085278  10.763546   0.361342   0.004633  -0.000143
    22  H    0.000018   0.004918   0.361342   0.835045  -0.104986  -0.000508
    23  H   -0.003215   0.004476   0.004633  -0.104986   0.804070   0.000500
    24  O   -0.000004   0.000191  -0.000143  -0.000508   0.000500   8.371083
    25  H   -0.000017   0.000179   0.000542   0.000091  -0.000161   0.201141
    26  O   -0.023841  -0.001322   0.002327   0.000210   0.000028   0.000000
    27  H   -0.005728   0.001801  -0.000683  -0.000141   0.000087   0.000000
              25         26         27
     1  C    0.123952  -0.000294   0.000375
     2  C   -0.024586   0.001073  -0.000688
     3  C    0.005588   0.006420  -0.001859
     4  C    0.029542  -0.003084   0.001056
     5  C   -0.153419  -0.000920   0.000083
     6  C    0.025604   0.000096  -0.000069
     7  H   -0.000065   0.000034  -0.000029
     8  H    0.001925   0.000559   0.000033
     9  H   -0.005933  -0.000011  -0.000004
    10  H    0.002603  -0.000003   0.000005
    11  C    0.000098   0.043719   0.023786
    12  C   -0.000941   0.006268  -0.004794
    13  C   -0.000411   0.134077  -0.012763
    14  C    0.000275  -0.556207   0.131458
    15  C   -0.000110   0.431775   0.027379
    16  C   -0.000224  -0.054400  -0.160661
    17  H   -0.000038  -0.001228   0.000243
    18  H    0.000004  -0.037293   0.002699
    19  H   -0.000017  -0.023841  -0.005728
    20  H    0.000179  -0.001322   0.001801
    21  C    0.000542   0.002327  -0.000683
    22  H    0.000091   0.000210  -0.000141
    23  H   -0.000161   0.000028   0.000087
    24  O    0.201141   0.000000   0.000000
    25  H    0.434965   0.000001   0.000000
    26  O    0.000001   8.357859   0.204631
    27  H    0.000000   0.204631   0.432995
 Mulliken charges:
               1
     1  C    0.105033
     2  C   -0.678213
     3  C    0.994462
     4  C   -0.291005
     5  C    0.168616
     6  C   -0.239167
     7  H    0.111684
     8  H    0.135109
     9  H    0.108172
    10  H    0.151635
    11  C   -0.856988
    12  C    0.618058
    13  C   -0.499915
    14  C    0.395096
    15  C   -0.486553
    16  C    0.493485
    17  H    0.127827
    18  H    0.158976
    19  H    0.115990
    20  H    0.115344
    21  C   -0.761837
    22  H    0.159527
    23  H    0.161499
    24  O   -0.516545
    25  H    0.359396
    26  O   -0.510473
    27  H    0.360785
 Sum of Mulliken charges =   0.00000
 Mulliken charges with hydrogens summed into heavy atoms:
               1
     1  C    0.256668
     2  C   -0.566529
     3  C    0.994462
     4  C   -0.155896
     5  C    0.276789
     6  C   -0.239167
    11  C   -0.741643
    12  C    0.618058
    13  C   -0.372088
    14  C    0.554072
    15  C   -0.486553
    16  C    0.609475
    21  C   -0.440812
    24  O   -0.157149
    26  O   -0.149688
 Electronic spatial extent (au):  <R**2>=           9341.9495
 Charge=              0.0000 electrons
 Dipole moment (field-independent basis, Debye):
    X=              0.7310    Y=             -0.5682    Z=             -0.9049  Tot=              1.2946
 Quadrupole moment (field-independent basis, Debye-Ang):
   XX=            -85.4435   YY=            -78.1872   ZZ=            -98.6136
   XY=              0.2551   XZ=             -9.1850   YZ=             -0.0920
 Traceless Quadrupole moment (field-independent basis, Debye-Ang):
   XX=              1.9712   YY=              9.2275   ZZ=            -11.1988
   XY=              0.2551   XZ=             -9.1850   YZ=             -0.0920
 Octapole moment (field-independent basis, Debye-Ang**2):
  XXX=           -551.7103  YYY=            195.2201  ZZZ=           -847.5774  XYY=           -146.7637
  XXY=            111.1761  XXZ=           -293.0393  XZZ=           -206.6012  YZZ=            119.5889
  YYZ=           -187.8374  XYZ=             10.4431
 Hexadecapole moment (field-independent basis, Debye-Ang**3):
 XXXX=          -3317.3659 YYYY=          -1266.0615 ZZZZ=          -8658.5968 XXXY=           1034.4011
 XXXZ=          -2368.2205 YYYX=            602.9837 YYYZ=           1054.4738 ZZZX=          -2483.8284
 ZZZY=           1829.6029 XXYY=           -776.3318 XXZZ=          -2019.6980 YYZZ=          -1392.7201
 XXYZ=            631.1206 YYXZ=           -547.2048 ZZXY=            445.2759
 N-N= 8.886526900923D+02 E-N=-3.295572719466D+03  KE= 6.486682725636D+02
 Variable Step   Value    
 -------- ---- -----------
    20       1    2.078699
 ---------------------------------------------------------------------------------------------------
                            Z-MATRIX (ANGSTROMS AND DEGREES)
   CD    Cent   Atom    N1       Length/X        N2       Alpha/Y        N3        Beta/Z          J
 ---------------------------------------------------------------------------------------------------
      1      1  C 
      2      2  C        1   1.399144(     1)
      3      3  C        2   1.406351(     2)      1  121.505(    27)
      4      4  C        3   1.406066(     3)      2  118.000(    28)      1   -0.122(    52)      0
      5      5  C        4   1.399281(     4)      3  121.189(    29)      2    0.199(    53)      0
      6      6  C        1   1.396858(     5)      2  119.348(    30)      3   -0.011(    54)      0
      7      7  H        2   1.086943(     6)      1  119.082(    31)      6  179.904(    55)      0
      8      8  H        4   1.086351(     7)      3  119.598(    32)      2 -179.326(    56)      0
      9      9  H        5   1.087447(     8)      4  120.025(    33)      3  179.959(    57)      0
     10     10  H        1   1.084093(     9)      6  119.175(    34)      5 -179.852(    58)      0
     11     11  C        3   3.124095(    10)      2  118.861(    35)      1 -118.042(    59)      0
     12     12  C       11   1.406064(    11)      3   54.301(    36)      2 -136.578(    60)      0
     13     13  C       12   1.406350(    12)     11  118.000(    37)      3 -155.296(    61)      0
     14     14  C       13   1.399145(    13)     12  121.505(    38)     11   -0.124(    62)      0
     15     15  C       14   1.396858(    14)     13  119.348(    39)     12   -0.009(    63)      0
     16     16  C       11   1.399281(    15)      3  159.118(    40)      2  138.844(    64)      0
     17     17  H       13   1.086943(    16)     12  119.414(    41)     11  179.963(    65)      0
     18     18  H       14   1.084093(    17)     13  121.477(    42)     12  179.913(    66)      0
     19     19  H       16   1.087447(    18)     11  120.025(    43)      3 -109.117(    67)      0
     20     20  H       11   1.086348(    19)      3   69.101(    44)      2   21.151(    68)      0
     21     21  C        3   1.100000(    20)      2  120.941(    45)      1  178.639(    69)      0
     22     22  H       21   1.099239(    21)      3  109.428(    46)      2 -110.107(    70)      0
     23     23  H       21   1.099243(    22)      3  108.345(    47)      2    4.814(    71)      0
     24     24  O        6   1.400339(    23)      1  116.912(    48)      2  179.934(    72)      0
     25     25  H       24   0.976153(    24)      6  112.484(    49)      1  179.849(    73)      0
     26     26  O       15   1.400340(    25)     14  116.912(    50)     13  179.923(    74)      0
     27     27  H       26   0.976153(    26)     15  112.484(    51)     14  179.758(    75)      0
 ---------------------------------------------------------------------------------------------------
                         Z-Matrix orientation:                         
 ---------------------------------------------------------------------
 Center     Atomic      Atomic             Coordinates (Angstroms)
 Number     Number       Type             X           Y           Z
 ---------------------------------------------------------------------
      1          6           0        0.000000    0.000000    0.000000
      2          6           0        0.000000    0.000000    1.399144
      3          6           0        1.199051    0.000000    2.134059
      4          6           0        2.410612   -0.002652    1.420523
      5          6           0        2.427544   -0.001069    0.021345
      6          6           0        1.217582    0.000225   -0.684622
      7          1           0       -0.949909    0.001419    1.927458
      8          1           0        3.352258   -0.013834    1.962127
      9          1           0        3.375581   -0.002508   -0.511351
     10          1           0       -0.924565   -0.001432   -0.566069
     11          6           0        1.812568   -2.414870    4.018726
     12          6           0        2.007049   -1.058360    4.333488
     13          6           0        2.965789   -0.738356    5.311361
     14          6           0        3.707942   -1.731262    5.960170
     15          6           0        3.493247   -3.071658    5.630845
     16          6           0        2.545636   -3.419776    4.659635
     17          1           0        3.135256    0.303152    5.572103
     18          1           0        4.447868   -1.483987    6.712913
     19          1           0        2.379498   -4.463076    4.401831
     20          1           0        1.086374   -2.690700    3.259310
     21          6           0        1.188371    0.022403    3.233779
     22          1           0        1.553224    0.998692    3.583163
     23          1           0        0.144356   -0.045385    3.571081
     24          8           0        1.158049   -0.001234   -2.083693
     25          1           0        2.043309    0.001391   -2.495011
     26          8           0        4.264791   -4.022632    6.310050
     27          1           0        4.060098   -4.936077    6.033291
 ---------------------------------------------------------------------
                    Distance matrix (angstroms):
                    1          2          3          4          5
     1  C    0.000000
     2  C    1.399144   0.000000
     3  C    2.447842   1.406351   0.000000
     4  C    2.798025   2.410708   1.406066   0.000000
     5  C    2.427638   2.791290   2.443923   1.399281   0.000000
     6  C    1.396858   2.413418   2.818742   2.419703   1.400857
     7  H    2.148819   1.086943   2.158869   3.398544   3.878204
     8  H    3.884298   3.399232   2.160105   1.086351   2.149859
     9  H    3.414093   3.878730   3.425709   2.159468   1.087447
    10  H    1.084093   2.171839   3.435177   3.882004   3.403189
    11  C    5.026645   3.997401   3.124095   3.595429   4.709956
    12  C    4.891573   3.709279   2.571084   3.124540   4.459737
    13  C    6.127939   4.964526   3.709688   3.998513   5.368200
    14  C    7.229781   6.127730   4.891926   5.027878   6.316853
    15  C    7.303716   6.288494   5.189020   5.321438   6.483111
    16  C    6.315641   5.367116   4.459450   4.710288   5.763266
    17  H    6.400786   5.228319   3.957390   4.225428   5.603955
    18  H    8.188342   7.086741   5.807145   5.861242   7.145477
    19  H    6.705012   5.881938   5.143471   5.365124   6.253038
    20  H    4.363849   3.446780   2.918690   3.515728   4.417836
    21  C    3.445294   2.186004   1.100000   2.186869   3.443230
    22  H    4.030999   2.860041   1.795196   2.532749   3.801382
    23  H    3.574286   2.177202   1.783108   3.124523   4.220846
    24  O    2.383874   3.670318   4.217952   3.721350   2.458212
    25  H    3.224933   4.397676   4.705429   3.932726   2.545524
    26  O    8.613172   7.647680   6.558905   6.595885   7.687409
    27  H    8.789189   7.894591   6.910460   6.952490   7.947517
                    6          7          8          9         10
     6  C    0.000000
     7  H    3.394257   0.000000
     8  H    3.400341   4.302334   0.000000
     9  H    2.164946   4.965649   2.473614   0.000000
    10  H    2.145426   2.493657   4.968214   4.300494   0.000000
    11  C    5.320542   4.224114   3.516422   5.365081   5.859772
    12  C    5.188958   3.956730   2.919585   5.143945   5.806644
    13  C    6.289161   5.227883   3.448429   5.883314   7.086755
    14  C    7.304328   6.400042   4.365824   6.706687   8.188055
    15  C    7.382427   6.549849   4.778039   6.867321   8.206406
    16  C    6.482377   5.602518   4.419008   6.253449   7.143903
    17  H    6.551018   5.482978   3.630357   6.095867   7.365601
    18  H    8.207384   7.364985   5.092316   7.452152   9.167584
    19  H    6.866084   6.094194   5.166641   6.710306   7.450043
    20  H    4.776284   3.628744   3.739322   5.165726   5.090144
    21  C    3.918572   2.505825   2.510143   4.337108   4.347863
    22  H    4.395859   3.162529   2.624784   4.592214   4.935161
    23  H    4.389180   1.975121   3.588922   5.206621   4.273235
    24  O    1.400339   4.531316   4.602540   2.718402   2.576910
    25  H    1.989808   5.340186   4.645392   2.389534   3.539647
    26  O    8.625212   7.911586   5.983946   7.967660   9.506865
    27  H    8.807799   8.144747   6.426810   8.224415   9.630636
                   11         12         13         14         15
    11  C    0.000000
    12  C    1.406064   0.000000
    13  C    2.410710   1.406350   0.000000
    14  C    2.798030   2.447842   1.399145   0.000000
    15  C    2.419707   2.818739   2.413417   1.396858   0.000000
    16  C    1.399281   2.443917   2.791287   2.427638   1.400857
    17  H    3.398548   2.158873   1.086943   2.148816   3.394253
    18  H    3.882009   3.435174   2.171836   1.084093   2.145431
    19  H    2.159474   3.425709   3.878726   3.414087   2.164937
    20  H    1.086348   2.160100   3.399230   3.884300   3.400345
    21  C    2.635539   1.745750   2.838013   4.105702   4.542202
    22  H    3.450997   2.236160   2.828312   4.212556   4.952216
    23  H    2.932197   2.253222   3.386631   4.609672   4.961454
    24  O    6.594964   6.558851   7.648406   8.613867   8.625239
    25  H    6.951283   6.910339   7.895420   8.789948   8.807695
    26  O    3.721352   4.217950   3.670321   2.383878   1.400340
    27  H    3.932728   4.705425   4.397676   3.224933   1.989809
                   16         17         18         19         20
    16  C    0.000000
    17  H    3.878200   0.000000
    18  H    3.403192   2.493645   0.000000
    19  H    1.087447   4.965646   4.300491   0.000000
    20  H    2.149862   4.302334   4.968216   2.473630   0.000000
    21  C    3.965328   3.055640   4.999790   4.785672   2.715140
    22  H    4.654732   2.634859   4.933355   5.584251   3.732887
    23  H    4.282243   3.615390   5.519139   5.020160   2.825295
    24  O    7.686632   7.912851   9.507984   7.966305   5.982144
    25  H    7.946426   8.146271   9.631933   8.222587   6.424585
    26  O    2.458210   4.531316   2.576924   2.718385   4.602542
    27  H    2.545525   5.340182   3.539658   2.389520   4.645398
                   21         22         23         24         25
    21  C    0.000000
    22  H    1.099239   0.000000
    23  H    1.099243   1.753611   0.000000
    24  O    5.317611   5.767953   5.745084   0.000000
    25  H    5.792271   6.178915   6.356547   0.976153   0.000000
    26  O    5.940548   6.324730   6.348104   9.812157   9.932615
    27  H    6.377351   6.892679   6.731596   9.932774  10.058726
                   26         27
    26  O    0.000000
    27  H    0.976153   0.000000
 Symmetry turned off by external request.
 Stoichiometry    C13H12O2
 Framework group  C1[X(C13H12O2)]
 Deg. of freedom    75
 Full point group                 C1      NOp   1
 Rotational constants (GHZ):           1.6758780           0.2506257           0.2420795
 Standard basis: 6-31++G(d,p) (6D, 7F)
   357 basis functions,   576 primitive gaussians,   357 cartesian basis functions
    53 alpha electrons       53 beta electrons
       nuclear repulsion energy       886.1225637788 Hartrees.
 NAtoms=   27 NActive=   27 NUniq=   27 SFac= 1.00D+00 NAtFMM=   60 NAOKFM=F Big=F
 Integral buffers will be    131072 words long.
 Raffenetti 2 integral format.
 Two-electron integral symmetry is turned off.
 One-electron integrals computed using PRISM.
 NBasis=   357 RedAO= T EigKep=  1.08D-06  NBF=   357
 NBsUse=   355 1.00D-06 EigRej=  8.11D-07 NBFU=   355
 Initial guess from the checkpoint file:  "C:\Users\Administrator\Desktop\dataset_dft\C12H8O1\C12H8O1.chk"
 B after Tr=    -0.003587    0.004772    0.018666
         Rot=    1.000000   -0.000467   -0.000313   -0.000047 Ang=  -0.06 deg.
 ExpMin= 3.60D-02 ExpMax= 5.48D+03 ExpMxC= 8.25D+02 IAcc=3 IRadAn=         5 AccDes= 0.00D+00
 Harris functional with IExCor=  402 and IRadAn=       5 diagonalized for initial guess.
 HarFok:  IExCor=  402 AccDes= 0.00D+00 IRadAn=         5 IDoV= 1 UseB2=F ITyADJ=14
 ICtDFT=  3500011 ScaDFX=  1.000000  1.000000  1.000000  1.000000
 FoFCou: FMM=F IPFlag=           0 FMFlag=      100000 FMFlg1=           0
         NFxFlg=           0 DoJE=T BraDBF=F KetDBF=T FulRan=T
         wScrn=  0.000000 ICntrl=       500 IOpCl=  0 I1Cent=   200000004 NGrid=           0
         NMat0=    1 NMatS0=      1 NMatT0=    0 NMatD0=    1 NMtDS0=    0 NMtDT0=    0
 Symmetry not used in FoFCou.
 Requested convergence on RMS density matrix=1.00D-08 within 128 cycles.
 Requested convergence on MAX density matrix=1.00D-06.
 Requested convergence on             energy=1.00D-06.
 No special actions if energy rises.
 SCF Done:  E(RB3LYP) =  -652.877373972     A.U. after   14 cycles
            NFock= 14  Conv=0.65D-08     -V/T= 2.0077
 Variable Step   Value    
 -------- ---- -----------
    20       2    2.267671
 ---------------------------------------------------------------------------------------------------
                            Z-MATRIX (ANGSTROMS AND DEGREES)
   CD    Cent   Atom    N1       Length/X        N2       Alpha/Y        N3        Beta/Z          J
 ---------------------------------------------------------------------------------------------------
      1      1  C 
      2      2  C        1   1.399144(     1)
      3      3  C        2   1.406351(     2)      1  121.505(    27)
      4      4  C        3   1.406066(     3)      2  118.000(    28)      1   -0.122(    52)      0
      5      5  C        4   1.399281(     4)      3  121.189(    29)      2    0.199(    53)      0
      6      6  C        1   1.396858(     5)      2  119.348(    30)      3   -0.011(    54)      0
      7      7  H        2   1.086943(     6)      1  119.082(    31)      6  179.904(    55)      0
      8      8  H        4   1.086351(     7)      3  119.598(    32)      2 -179.326(    56)      0
      9      9  H        5   1.087447(     8)      4  120.025(    33)      3  179.959(    57)      0
     10     10  H        1   1.084093(     9)      6  119.175(    34)      5 -179.852(    58)      0
     11     11  C        3   3.124095(    10)      2  118.861(    35)      1 -118.042(    59)      0
     12     12  C       11   1.406064(    11)      3   54.301(    36)      2 -136.578(    60)      0
     13     13  C       12   1.406350(    12)     11  118.000(    37)      3 -155.296(    61)      0
     14     14  C       13   1.399145(    13)     12  121.505(    38)     11   -0.124(    62)      0
     15     15  C       14   1.396858(    14)     13  119.348(    39)     12   -0.009(    63)      0
     16     16  C       11   1.399281(    15)      3  159.118(    40)      2  138.844(    64)      0
     17     17  H       13   1.086943(    16)     12  119.414(    41)     11  179.963(    65)      0
     18     18  H       14   1.084093(    17)     13  121.477(    42)     12  179.913(    66)      0
     19     19  H       16   1.087447(    18)     11  120.025(    43)      3 -109.117(    67)      0
     20     20  H       11   1.086348(    19)      3   69.101(    44)      2   21.151(    68)      0
     21     21  C        3   1.200000(    20)      2  120.941(    45)      1  178.639(    69)      0
     22     22  H       21   1.099239(    21)      3  109.428(    46)      2 -110.107(    70)      0
     23     23  H       21   1.099243(    22)      3  108.345(    47)      2    4.814(    71)      0
     24     24  O        6   1.400339(    23)      1  116.912(    48)      2  179.934(    72)      0
     25     25  H       24   0.976153(    24)      6  112.484(    49)      1  179.849(    73)      0
     26     26  O       15   1.400340(    25)     14  116.912(    50)     13  179.923(    74)      0
     27     27  H       26   0.976153(    26)     15  112.484(    51)     14  179.758(    75)      0
 ---------------------------------------------------------------------------------------------------
                         Z-Matrix orientation:                         
 ---------------------------------------------------------------------
 Center     Atomic      Atomic             Coordinates (Angstroms)
 Number     Number       Type             X           Y           Z
 ---------------------------------------------------------------------
      1          6           0        0.000000    0.000000    0.000000
      2          6           0        0.000000    0.000000    1.399144
      3          6           0        1.199051    0.000000    2.134059
      4          6           0        2.410612   -0.002652    1.420523
      5          6           0        2.427544   -0.001069    0.021345
      6          6           0        1.217582    0.000225   -0.684622
      7          1           0       -0.949909    0.001419    1.927458
      8          1           0        3.352258   -0.013834    1.962127
      9          1           0        3.375581   -0.002508   -0.511351
     10          1           0       -0.924565   -0.001432   -0.566069
     11          6           0        1.812568   -2.414870    4.018726
     12          6           0        2.007049   -1.058360    4.333488
     13          6           0        2.965789   -0.738356    5.311361
     14          6           0        3.707942   -1.731262    5.960170
     15          6           0        3.493247   -3.071658    5.630845
     16          6           0        2.545636   -3.419776    4.659635
     17          1           0        3.135256    0.303152    5.572103
     18          1           0        4.447868   -1.483987    6.712913
     19          1           0        2.379498   -4.463076    4.401831
     20          1           0        1.086374   -2.690700    3.259310
     21          6           0        1.187400    0.024440    3.333753
     22          1           0        1.552253    1.000729    3.683138
     23          1           0        0.143385   -0.043348    3.671055
     24          8           0        1.158049   -0.001234   -2.083693
     25          1           0        2.043309    0.001391   -2.495011
     26          8           0        4.264791   -4.022632    6.310050
     27          1           0        4.060098   -4.936077    6.033291
 ---------------------------------------------------------------------
                    Distance matrix (angstroms):
                    1          2          3          4          5
     1  C    0.000000
     2  C    1.399144   0.000000
     3  C    2.447842   1.406351   0.000000
     4  C    2.798025   2.410708   1.406066   0.000000
     5  C    2.427638   2.791290   2.443923   1.399281   0.000000
     6  C    1.396858   2.413418   2.818742   2.419703   1.400857
     7  H    2.148819   1.086943   2.158869   3.398544   3.878204
     8  H    3.884298   3.399232   2.160105   1.086351   2.149859
     9  H    3.414093   3.878730   3.425709   2.159468   1.087447
    10  H    1.084093   2.171839   3.435177   3.882004   3.403189
    11  C    5.026645   3.997401   3.124095   3.595429   4.709956
    12  C    4.891573   3.709279   2.571084   3.124540   4.459737
    13  C    6.127939   4.964526   3.709688   3.998513   5.368200
    14  C    7.229781   6.127730   4.891926   5.027878   6.316853
    15  C    7.303716   6.288494   5.189020   5.321438   6.483111
    16  C    6.315641   5.367116   4.459450   4.710288   5.763266
    17  H    6.400786   5.228319   3.957390   4.225428   5.603955
    18  H    8.188342   7.086741   5.807145   5.861242   7.145477
    19  H    6.705012   5.881938   5.143471   5.365124   6.253038
    20  H    4.363849   3.446780   2.918690   3.515728   4.417836
    21  C    3.538987   2.270073   1.200000   2.270998   3.537041
    22  H    4.120249   2.937274   1.877726   2.619729   3.895954
    23  H    3.674110   2.276845   1.865118   3.194819   4.305759
    24  O    2.383874   3.670318   4.217952   3.721350   2.458212
    25  H    3.224933   4.397676   4.705429   3.932726   2.545524
    26  O    8.613172   7.647680   6.558905   6.595885   7.687409
    27  H    8.789189   7.894591   6.910460   6.952490   7.947517
                    6          7          8          9         10
     6  C    0.000000
     7  H    3.394257   0.000000
     8  H    3.400341   4.302334   0.000000
     9  H    2.164946   4.965649   2.473614   0.000000
    10  H    2.145426   2.493657   4.968214   4.300494   0.000000
    11  C    5.320542   4.224114   3.516422   5.365081   5.859772
    12  C    5.188958   3.956730   2.919585   5.143945   5.806644
    13  C    6.289161   5.227883   3.448429   5.883314   7.086755
    14  C    7.304328   6.400042   4.365824   6.706687   8.188055
    15  C    7.382427   6.549849   4.778039   6.867321   8.206406
    16  C    6.482377   5.602518   4.419008   6.253449   7.143903
    17  H    6.551018   5.482978   3.630357   6.095867   7.365601
    18  H    8.207384   7.364985   5.092316   7.452152   9.167584
    19  H    6.866084   6.094194   5.166641   6.710306   7.450043
    20  H    4.776284   3.628744   3.739322   5.165726   5.090144
    21  C    4.018561   2.558572   2.563091   4.424216   4.435052
    22  H    4.493366   3.215874   2.689095   4.682386   5.019434
    23  H    4.486393   2.058502   3.635680   5.285951   4.369840
    24  O    1.400339   4.531316   4.602540   2.718402   2.576910
    25  H    1.989808   5.340186   4.645392   2.389534   3.539647
    26  O    8.625212   7.911586   5.983946   7.967660   9.506865
    27  H    8.807799   8.144747   6.426810   8.224415   9.630636
                   11         12         13         14         15
    11  C    0.000000
    12  C    1.406064   0.000000
    13  C    2.410710   1.406350   0.000000
    14  C    2.798030   2.447842   1.399145   0.000000
    15  C    2.419707   2.818739   2.413417   1.396858   0.000000
    16  C    1.399281   2.443917   2.791287   2.427638   1.400857
    17  H    3.398548   2.158873   1.086943   2.148816   3.394253
    18  H    3.882009   3.435174   2.171836   1.084093   2.145431
    19  H    2.159474   3.425709   3.878726   3.414087   2.164937
    20  H    1.086348   2.160100   3.399230   3.884300   3.400345
    21  C    2.609647   1.686342   2.766850   4.041496   4.492147
    22  H    3.441904   2.206727   2.770129   4.158804   4.913793
    23  H    2.920815   2.223130   3.337604   4.560172   4.922704
    24  O    6.594964   6.558851   7.648406   8.613867   8.625239
    25  H    6.951283   6.910339   7.895420   8.789948   8.807695
    26  O    3.721352   4.217950   3.670321   2.383878   1.400340
    27  H    3.932728   4.705425   4.397676   3.224933   1.989809
                   16         17         18         19         20
    16  C    0.000000
    17  H    3.878200   0.000000
    18  H    3.403192   2.493645   0.000000
    19  H    1.087447   4.965646   4.300491   0.000000
    20  H    2.149862   4.302334   4.968216   2.473630   0.000000
    21  C    3.932606   2.980273   4.932010   4.764419   2.718039
    22  H    4.634783   2.561386   4.872159   5.572614   3.744773
    23  H    4.260089   3.561647   5.464147   5.006819   2.840288
    24  O    7.686632   7.912851   9.507984   7.966305   5.982144
    25  H    7.946426   8.146271   9.631933   8.222587   6.424585
    26  O    2.458210   4.531316   2.576924   2.718385   4.602542
    27  H    2.545525   5.340182   3.539658   2.389520   4.645398
                   21         22         23         24         25
    21  C    0.000000
    22  H    1.099239   0.000000
    23  H    1.099243   1.753611   0.000000
    24  O    5.417587   5.866487   5.843668   0.000000
    25  H    5.891316   6.277686   6.452294   0.976153   0.000000
    26  O    5.891304   6.284321   6.307533   9.812157   9.932615
    27  H    6.336136   6.859896   6.697730   9.932774  10.058726
                   26         27
    26  O    0.000000
    27  H    0.976153   0.000000
 Symmetry turned off by external request.
 Stoichiometry    C13H12O2
 Framework group  C1[X(C13H12O2)]
 Deg. of freedom    75
 Full point group                 C1      NOp   1
 Rotational constants (GHZ):           1.6625335           0.2507136           0.2418809
 Standard basis: 6-31++G(d,p) (6D, 7F)
   357 basis functions,   576 primitive gaussians,   357 cartesian basis functions
    53 alpha electrons       53 beta electrons
       nuclear repulsion energy       883.9644524894 Hartrees.
 NAtoms=   27 NActive=   27 NUniq=   27 SFac= 1.00D+00 NAtFMM=   60 NAOKFM=F Big=F
 Integral buffers will be    131072 words long.
 Raffenetti 2 integral format.
 Two-electron integral symmetry is turned off.
 One-electron integrals computed using PRISM.
 NBasis=   357 RedAO= T EigKep=  1.02D-06  NBF=   357
 NBsUse=   356 1.00D-06 EigRej=  7.04D-07 NBFU=   356
 Initial guess from the checkpoint file:  "C:\Users\Administrator\Desktop\dataset_dft\C12H8O1\C12H8O1.chk"
 B after Tr=    -0.003593    0.004782    0.018663
         Rot=    1.000000   -0.000466   -0.000313   -0.000046 Ang=  -0.06 deg.
 ExpMin= 3.60D-02 ExpMax= 5.48D+03 ExpMxC= 8.25D+02 IAcc=3 IRadAn=         5 AccDes= 0.00D+00
 Harris functional with IExCor=  402 and IRadAn=       5 diagonalized for initial guess.
 HarFok:  IExCor=  402 AccDes= 0.00D+00 IRadAn=         5 IDoV= 1 UseB2=F ITyADJ=14
 ICtDFT=  3500011 ScaDFX=  1.000000  1.000000  1.000000  1.000000
 FoFCou: FMM=F IPFlag=           0 FMFlag=      100000 FMFlg1=           0
         NFxFlg=           0 DoJE=T BraDBF=F KetDBF=T FulRan=T
         wScrn=  0.000000 ICntrl=       500 IOpCl=  0 I1Cent=   200000004 NGrid=           0
         NMat0=    1 NMatS0=      1 NMatT0=    0 NMatD0=    1 NMtDS0=    0 NMtDT0=    0
 Symmetry not used in FoFCou.
 Requested convergence on RMS density matrix=1.00D-08 within 128 cycles.
 Requested convergence on MAX density matrix=1.00D-06.
 Requested convergence on             energy=1.00D-06.
 No special actions if energy rises.
 SCF Done:  E(RB3LYP) =  -652.993300260     A.U. after   14 cycles
            NFock= 14  Conv=0.48D-08     -V/T= 2.0087
 Variable Step   Value    
 -------- ---- -----------
    20       3    2.456644
 ---------------------------------------------------------------------------------------------------
                            Z-MATRIX (ANGSTROMS AND DEGREES)
   CD    Cent   Atom    N1       Length/X        N2       Alpha/Y        N3        Beta/Z          J
 ---------------------------------------------------------------------------------------------------
      1      1  C 
      2      2  C        1   1.399144(     1)
      3      3  C        2   1.406351(     2)      1  121.505(    27)
      4      4  C        3   1.406066(     3)      2  118.000(    28)      1   -0.122(    52)      0
      5      5  C        4   1.399281(     4)      3  121.189(    29)      2    0.199(    53)      0
      6      6  C        1   1.396858(     5)      2  119.348(    30)      3   -0.011(    54)      0
      7      7  H        2   1.086943(     6)      1  119.082(    31)      6  179.904(    55)      0
      8      8  H        4   1.086351(     7)      3  119.598(    32)      2 -179.326(    56)      0
      9      9  H        5   1.087447(     8)      4  120.025(    33)      3  179.959(    57)      0
     10     10  H        1   1.084093(     9)      6  119.175(    34)      5 -179.852(    58)      0
     11     11  C        3   3.124095(    10)      2  118.861(    35)      1 -118.042(    59)      0
     12     12  C       11   1.406064(    11)      3   54.301(    36)      2 -136.578(    60)      0
     13     13  C       12   1.406350(    12)     11  118.000(    37)      3 -155.296(    61)      0
     14     14  C       13   1.399145(    13)     12  121.505(    38)     11   -0.124(    62)      0
     15     15  C       14   1.396858(    14)     13  119.348(    39)     12   -0.009(    63)      0
     16     16  C       11   1.399281(    15)      3  159.118(    40)      2  138.844(    64)      0
     17     17  H       13   1.086943(    16)     12  119.414(    41)     11  179.963(    65)      0
     18     18  H       14   1.084093(    17)     13  121.477(    42)     12  179.913(    66)      0
     19     19  H       16   1.087447(    18)     11  120.025(    43)      3 -109.117(    67)      0
     20     20  H       11   1.086348(    19)      3   69.101(    44)      2   21.151(    68)      0
     21     21  C        3   1.300000(    20)      2  120.941(    45)      1  178.639(    69)      0
     22     22  H       21   1.099239(    21)      3  109.428(    46)      2 -110.107(    70)      0
     23     23  H       21   1.099243(    22)      3  108.345(    47)      2    4.814(    71)      0
     24     24  O        6   1.400339(    23)      1  116.912(    48)      2  179.934(    72)      0
     25     25  H       24   0.976153(    24)      6  112.484(    49)      1  179.849(    73)      0
     26     26  O       15   1.400340(    25)     14  116.912(    50)     13  179.923(    74)      0
     27     27  H       26   0.976153(    26)     15  112.484(    51)     14  179.758(    75)      0
 ---------------------------------------------------------------------------------------------------
                         Z-Matrix orientation:                         
 ---------------------------------------------------------------------
 Center     Atomic      Atomic             Coordinates (Angstroms)
 Number     Number       Type             X           Y           Z
 ---------------------------------------------------------------------
      1          6           0        0.000000    0.000000    0.000000
      2          6           0        0.000000    0.000000    1.399144
      3          6           0        1.199051    0.000000    2.134059
      4          6           0        2.410612   -0.002652    1.420523
      5          6           0        2.427544   -0.001069    0.021345
      6          6           0        1.217582    0.000225   -0.684622
      7          1           0       -0.949909    0.001419    1.927458
      8          1           0        3.352258   -0.013834    1.962127
      9          1           0        3.375581   -0.002508   -0.511351
     10          1           0       -0.924565   -0.001432   -0.566069
     11          6           0        1.812568   -2.414870    4.018726
     12          6           0        2.007049   -1.058360    4.333488
     13          6           0        2.965789   -0.738356    5.311361
     14          6           0        3.707942   -1.731262    5.960170
     15          6           0        3.493247   -3.071658    5.630845
     16          6           0        2.545636   -3.419776    4.659635
     17          1           0        3.135256    0.303152    5.572103
     18          1           0        4.447868   -1.483987    6.712913
     19          1           0        2.379498   -4.463076    4.401831
     20          1           0        1.086374   -2.690700    3.259310
     21          6           0        1.186430    0.026477    3.433728
     22          1           0        1.551283    1.002766    3.783112
     23          1           0        0.142415   -0.041311    3.771030
     24          8           0        1.158049   -0.001234   -2.083693
     25          1           0        2.043309    0.001391   -2.495011
     26          8           0        4.264791   -4.022632    6.310050
     27          1           0        4.060098   -4.936077    6.033291
 ---------------------------------------------------------------------
                    Distance matrix (angstroms):
                    1          2          3          4          5
     1  C    0.000000
     2  C    1.399144   0.000000
     3  C    2.447842   1.406351   0.000000
     4  C    2.798025   2.410708   1.406066   0.000000
     5  C    2.427638   2.791290   2.443923   1.399281   0.000000
     6  C    1.396858   2.413418   2.818742   2.419703   1.400857
     7  H    2.148819   1.086943   2.158869   3.398544   3.878204
     8  H    3.884298   3.399232   2.160105   1.086351   2.149859
     9  H    3.414093   3.878730   3.425709   2.159468   1.087447
    10  H    1.084093   2.171839   3.435177   3.882004   3.403189
    11  C    5.026645   3.997401   3.124095   3.595429   4.709956
    12  C    4.891573   3.709279   2.571084   3.124540   4.459737
    13  C    6.127939   4.964526   3.709688   3.998513   5.368200
    14  C    7.229781   6.127730   4.891926   5.027878   6.316853
    15  C    7.303716   6.288494   5.189020   5.321438   6.483111
    16  C    6.315641   5.367116   4.459450   4.710288   5.763266
    17  H    6.400786   5.228319   3.957390   4.225428   5.603955
    18  H    8.188342   7.086741   5.807145   5.861242   7.145477
    19  H    6.705012   5.881938   5.143471   5.365124   6.253038
    20  H    4.363849   3.446780   2.918690   3.515728   4.417836
    21  C    3.633016   2.355387   1.300000   2.356367   3.631182
    22  H    4.209983   3.015845   1.961882   2.707608   3.990791
    23  H    3.773944   2.376517   1.948810   3.266665   4.391307
    24  O    2.383874   3.670318   4.217952   3.721350   2.458212
    25  H    3.224933   4.397676   4.705429   3.932726   2.545524
    26  O    8.613172   7.647680   6.558905   6.595885   7.687409
    27  H    8.789189   7.894591   6.910460   6.952490   7.947517
                    6          7          8          9         10
     6  C    0.000000
     7  H    3.394257   0.000000
     8  H    3.400341   4.302334   0.000000
     9  H    2.164946   4.965649   2.473614   0.000000
    10  H    2.145426   2.493657   4.968214   4.300494   0.000000
    11  C    5.320542   4.224114   3.516422   5.365081   5.859772
    12  C    5.188958   3.956730   2.919585   5.143945   5.806644
    13  C    6.289161   5.227883   3.448429   5.883314   7.086755
    14  C    7.304328   6.400042   4.365824   6.706687   8.188055
    15  C    7.382427   6.549849   4.778039   6.867321   8.206406
    16  C    6.482377   5.602518   4.419008   6.253449   7.143903
    17  H    6.551018   5.482978   3.630357   6.095867   7.365601
    18  H    8.207384   7.364985   5.092316   7.452152   9.167584
    19  H    6.866084   6.094194   5.166641   6.710306   7.450043
    20  H    4.776284   3.628744   3.739322   5.165726   5.090144
    21  C    4.118551   2.614081   2.618787   4.511859   4.522771
    22  H    4.590979   3.271407   2.755535   4.772950   5.104274
    23  H    4.583726   2.143305   3.684560   5.365972   4.466595
    24  O    1.400339   4.531316   4.602540   2.718402   2.576910
    25  H    1.989808   5.340186   4.645392   2.389534   3.539647
    26  O    8.625212   7.911586   5.983946   7.967660   9.506865
    27  H    8.807799   8.144747   6.426810   8.224415   9.630636
                   11         12         13         14         15
    11  C    0.000000
    12  C    1.406064   0.000000
    13  C    2.410710   1.406350   0.000000
    14  C    2.798030   2.447842   1.399145   0.000000
    15  C    2.419707   2.818739   2.413417   1.396858   0.000000
    16  C    1.399281   2.443917   2.791287   2.427638   1.400857
    17  H    3.398548   2.158873   1.086943   2.148816   3.394253
    18  H    3.882009   3.435174   2.171836   1.084093   2.145431
    19  H    2.159474   3.425709   3.878726   3.414087   2.164937
    20  H    1.086348   2.160100   3.399230   3.884300   3.400345
    21  C    2.587363   1.630906   2.697517   3.978767   4.443779
    22  H    3.435698   2.181485   2.714384   4.106784   4.877117
    23  H    2.912825   2.197182   3.290887   4.512345   4.885693
    24  O    6.594964   6.558851   7.648406   8.613867   8.625239
    25  H    6.951283   6.910339   7.895420   8.789948   8.807695
    26  O    3.721352   4.217950   3.670321   2.383878   1.400340
    27  H    3.932728   4.705425   4.397676   3.224933   1.989809
                   16         17         18         19         20
    16  C    0.000000
    17  H    3.878200   0.000000
    18  H    3.403192   2.493645   0.000000
    19  H    1.087447   4.965646   4.300491   0.000000
    20  H    2.149862   4.302334   4.968216   2.473630   0.000000
    21  C    3.902172   2.906393   4.865340   4.745179   2.724607
    22  H    4.616915   2.489763   4.812263   5.562750   3.759281
    23  H    4.240178   3.509931   5.410445   4.995444   2.858702
    24  O    7.686632   7.912851   9.507984   7.966305   5.982144
    25  H    7.946426   8.146271   9.631933   8.222587   6.424585
    26  O    2.458210   4.531316   2.576924   2.718385   4.602542
    27  H    2.545525   5.340182   3.539658   2.389520   4.645398
                   21         22         23         24         25
    21  C    0.000000
    22  H    1.099239   0.000000
    23  H    1.099243   1.753611   0.000000
    24  O    5.517564   5.965069   5.942298   0.000000
    25  H    5.990394   6.376494   6.548168   0.976153   0.000000
    26  O    5.843357   6.245252   6.268295   9.812157   9.932615
    27  H    6.296240   6.828419   6.665193   9.932774  10.058726
                   26         27
    26  O    0.000000
    27  H    0.976153   0.000000
 Symmetry turned off by external request.
 Stoichiometry    C13H12O2
 Framework group  C1[X(C13H12O2)]
 Deg. of freedom    75
 Full point group                 C1      NOp   1
 Rotational constants (GHZ):           1.6490096           0.2507781           0.2416525
 Standard basis: 6-31++G(d,p) (6D, 7F)
   357 basis functions,   576 primitive gaussians,   357 cartesian basis functions
    53 alpha electrons       53 beta electrons
       nuclear repulsion energy       882.0991432201 Hartrees.
 NAtoms=   27 NActive=   27 NUniq=   27 SFac= 1.00D+00 NAtFMM=   60 NAOKFM=F Big=F
 Integral buffers will be    131072 words long.
 Raffenetti 2 integral format.
 Two-electron integral symmetry is turned off.
 One-electron integrals computed using PRISM.
 NBasis=   357 RedAO= T EigKep=  1.03D-06  NBF=   357
 NBsUse=   356 1.00D-06 EigRej=  7.02D-07 NBFU=   356
 Initial guess from the checkpoint file:  "C:\Users\Administrator\Desktop\dataset_dft\C12H8O1\C12H8O1.chk"
 B after Tr=    -0.003600    0.004792    0.018659
         Rot=    1.000000   -0.000466   -0.000313   -0.000046 Ang=  -0.06 deg.
 ExpMin= 3.60D-02 ExpMax= 5.48D+03 ExpMxC= 8.25D+02 IAcc=3 IRadAn=         5 AccDes= 0.00D+00
 Harris functional with IExCor=  402 and IRadAn=       5 diagonalized for initial guess.
[...]
    18  H    3.403192   2.493645   0.000000
    19  H    1.087447   4.965646   4.300491   0.000000
    20  H    2.149862   4.302334   4.968216   2.473630   0.000000
    21  C    3.759238   2.051481   3.992566   4.723267   3.273447
    22  H    4.625026   1.769297   4.073937   5.648606   4.312100
    23  H    4.241598   3.031201   4.759104   5.084692   3.545597
    24  O    7.686632   7.912851   9.507984   7.966305   5.982144
    25  H    7.946426   8.146271   9.631933   8.222587   6.424585
    26  O    2.458210   4.531316   2.576924   2.718385   4.602542
    27  H    2.545525   5.340182   3.539658   2.389520   4.645398
                   21         22         23         24         25
    21  C    0.000000
    22  H    1.099239   0.000000
    23  H    1.099243   1.753611   0.000000
    24  O    7.117281   7.547468   7.525303   0.000000
    25  H    7.578932   7.961476   8.095740   0.976153   0.000000
    26  O    5.278491   5.821585   5.840914   9.812157   9.932615
    27  H    5.856523   6.515640   6.339411   9.932774  10.058726
                   26         27
    26  O    0.000000
    27  H    0.976153   0.000000
 Symmetry turned off by external request.
 Stoichiometry    C13H12O2
 Framework group  C1[X(C13H12O2)]
 Deg. of freedom    75
 Full point group                 C1      NOp   1
 Rotational constants (GHZ):           1.4218079           0.2485490           0.2341464
 Standard basis: 6-31++G(d,p) (6D, 7F)
   357 basis functions,   576 primitive gaussians,   357 cartesian basis functions
    53 alpha electrons       53 beta electrons
       nuclear repulsion energy       862.1325328261 Hartrees.
 NAtoms=   27 NActive=   27 NUniq=   27 SFac= 1.00D+00 NAtFMM=   60 NAOKFM=F Big=F
 Integral buffers will be    131072 words long.
 Raffenetti 2 integral format.
 Two-electron integral symmetry is turned off.
 One-electron integrals computed using PRISM.
 NBasis=   357 RedAO= T EigKep=  1.11D-06  NBF=   357
 NBsUse=   356 1.00D-06 EigRej=  8.12D-07 NBFU=   356
 Initial guess from the checkpoint file:  "C:\Users\Administrator\Desktop\dataset_dft\C12H8O1\C12H8O1.chk"
 B after Tr=    -0.003640    0.004862    0.018525
         Rot=    1.000000   -0.000447   -0.000307   -0.000039 Ang=  -0.06 deg.
 ExpMin= 3.60D-02 ExpMax= 5.48D+03 ExpMxC= 8.25D+02 IAcc=3 IRadAn=         5 AccDes= 0.00D+00
 Harris functional with IExCor=  402 and IRadAn=       5 diagonalized for initial guess.
 HarFok:  IExCor=  402 AccDes= 0.00D+00 IRadAn=         5 IDoV= 1 UseB2=F ITyADJ=14
 ICtDFT=  3500011 ScaDFX=  1.000000  1.000000  1.000000  1.000000
 FoFCou: FMM=F IPFlag=           0 FMFlag=      100000 FMFlg1=           0
         NFxFlg=           0 DoJE=T BraDBF=F KetDBF=T FulRan=T
         wScrn=  0.000000 ICntrl=       500 IOpCl=  0 I1Cent=   200000004 NGrid=           0
         NMat0=    1 NMatS0=      1 NMatT0=    0 NMatD0=    1 NMtDS0=    0 NMtDT0=    0
 Symmetry not used in FoFCou.
 Requested convergence on RMS density matrix=1.00D-08 within 128 cycles.
 Requested convergence on MAX density matrix=1.00D-06.
 Requested convergence on             energy=1.00D-06.
 No special actions if energy rises.
 SCF Done:  E(RB3LYP) =  -652.830087547     A.U. after   16 cycles
            NFock= 16  Conv=0.50D-08     -V/T= 2.0099
 Variable Step   Value    
 -------- ---- -----------
    20      20    5.669178
 ---------------------------------------------------------------------------------------------------
                            Z-MATRIX (ANGSTROMS AND DEGREES)
   CD    Cent   Atom    N1       Length/X        N2       Alpha/Y        N3        Beta/Z          J
 ---------------------------------------------------------------------------------------------------
      1      1  C 
      2      2  C        1   1.399144(     1)
      3      3  C        2   1.406351(     2)      1  121.505(    27)
      4      4  C        3   1.406066(     3)      2  118.000(    28)      1   -0.122(    52)      0
      5      5  C        4   1.399281(     4)      3  121.189(    29)      2    0.199(    53)      0
      6      6  C        1   1.396858(     5)      2  119.348(    30)      3   -0.011(    54)      0
      7      7  H        2   1.086943(     6)      1  119.082(    31)      6  179.904(    55)      0
      8      8  H        4   1.086351(     7)      3  119.598(    32)      2 -179.326(    56)      0
      9      9  H        5   1.087447(     8)      4  120.025(    33)      3  179.959(    57)      0
     10     10  H        1   1.084093(     9)      6  119.175(    34)      5 -179.852(    58)      0
     11     11  C        3   3.124095(    10)      2  118.861(    35)      1 -118.042(    59)      0
     12     12  C       11   1.406064(    11)      3   54.301(    36)      2 -136.578(    60)      0
     13     13  C       12   1.406350(    12)     11  118.000(    37)      3 -155.296(    61)      0
     14     14  C       13   1.399145(    13)     12  121.505(    38)     11   -0.124(    62)      0
     15     15  C       14   1.396858(    14)     13  119.348(    39)     12   -0.009(    63)      0
     16     16  C       11   1.399281(    15)      3  159.118(    40)      2  138.844(    64)      0
     17     17  H       13   1.086943(    16)     12  119.414(    41)     11  179.963(    65)      0
     18     18  H       14   1.084093(    17)     13  121.477(    42)     12  179.913(    66)      0
     19     19  H       16   1.087447(    18)     11  120.025(    43)      3 -109.117(    67)      0
     20     20  H       11   1.086348(    19)      3   69.101(    44)      2   21.151(    68)      0
     21     21  C        3   3.000000(    20)      2  120.941(    45)      1  178.639(    69)      0
     22     22  H       21   1.099239(    21)      3  109.428(    46)      2 -110.107(    70)      0
     23     23  H       21   1.099243(    22)      3  108.345(    47)      2    4.814(    71)      0
     24     24  O        6   1.400339(    23)      1  116.912(    48)      2  179.934(    72)      0
     25     25  H       24   0.976153(    24)      6  112.484(    49)      1  179.849(    73)      0
     26     26  O       15   1.400340(    25)     14  116.912(    50)     13  179.923(    74)      0
     27     27  H       26   0.976153(    26)     15  112.484(    51)     14  179.758(    75)      0
 ---------------------------------------------------------------------------------------------------
                         Z-Matrix orientation:                         
 ---------------------------------------------------------------------
 Center     Atomic      Atomic             Coordinates (Angstroms)
 Number     Number       Type             X           Y           Z
 ---------------------------------------------------------------------
      1          6           0        0.000000    0.000000    0.000000
      2          6           0        0.000000    0.000000    1.399144
      3          6           0        1.199051    0.000000    2.134059
      4          6           0        2.410612   -0.002652    1.420523
      5          6           0        2.427544   -0.001069    0.021345
      6          6           0        1.217582    0.000225   -0.684622
      7          1           0       -0.949909    0.001419    1.927458
      8          1           0        3.352258   -0.013834    1.962127
      9          1           0        3.375581   -0.002508   -0.511351
     10          1           0       -0.924565   -0.001432   -0.566069
     11          6           0        1.812568   -2.414870    4.018726
     12          6           0        2.007049   -1.058360    4.333488
     13          6           0        2.965789   -0.738356    5.311361
     14          6           0        3.707942   -1.731262    5.960170
     15          6           0        3.493247   -3.071658    5.630845
     16          6           0        2.545636   -3.419776    4.659635
     17          1           0        3.135256    0.303152    5.572103
     18          1           0        4.447868   -1.483987    6.712913
     19          1           0        2.379498   -4.463076    4.401831
     20          1           0        1.086374   -2.690700    3.259310
     21          6           0        1.169925    0.061100    5.133295
     22          1           0        1.534778    1.037389    5.482679
     23          1           0        0.125910   -0.006688    5.470597
     24          8           0        1.158049   -0.001234   -2.083693
     25          1           0        2.043309    0.001391   -2.495011
     26          8           0        4.264791   -4.022632    6.310050
     27          1           0        4.060098   -4.936077    6.033291
 ---------------------------------------------------------------------
                    Distance matrix (angstroms):
                    1          2          3          4          5
     1  C    0.000000
     2  C    1.399144   0.000000
     3  C    2.447842   1.406351   0.000000
     4  C    2.798025   2.410708   1.406066   0.000000
     5  C    2.427638   2.791290   2.443923   1.399281   0.000000
     6  C    1.396858   2.413418   2.818742   2.419703   1.400857
     7  H    2.148819   1.086943   2.158869   3.398544   3.878204
     8  H    3.884298   3.399232   2.160105   1.086351   2.149859
     9  H    3.414093   3.878730   3.425709   2.159468   1.087447
    10  H    1.084093   2.171839   3.435177   3.882004   3.403189
    11  C    5.026645   3.997401   3.124095   3.595429   4.709956
    12  C    4.891573   3.709279   2.571084   3.124540   4.459737
    13  C    6.127939   4.964526   3.709688   3.998513   5.368200
    14  C    7.229781   6.127730   4.891926   5.027878   6.316853
    15  C    7.303716   6.288494   5.189020   5.321438   6.483111
    16  C    6.315641   5.367116   4.459450   4.710288   5.763266
    17  H    6.400786   5.228319   3.957390   4.225428   5.603955
    18  H    8.188342   7.086741   5.807145   5.861242   7.145477
    19  H    6.705012   5.881938   5.143471   5.365124   6.253038
    20  H    4.363849   3.446780   2.918690   3.515728   4.417836
    21  C    5.265280   3.913610   3.000000   3.915105   5.264742
    22  H    5.787183   4.484081   3.521668   4.283677   5.630417
    23  H    5.472050   4.073406   3.504877   4.650052   5.915396
    24  O    2.383874   3.670318   4.217952   3.721350   2.458212
    25  H    3.224933   4.397676   4.705429   3.932726   2.545524
    26  O    8.613172   7.647680   6.558905   6.595885   7.687409
    27  H    8.789189   7.894591   6.910460   6.952490   7.947517
                    6          7          8          9         10
     6  C    0.000000
     7  H    3.394257   0.000000
     8  H    3.400341   4.302334   0.000000
     9  H    2.164946   4.965649   2.473614   0.000000
    10  H    2.145426   2.493657   4.968214   4.300494   0.000000
    11  C    5.320542   4.224114   3.516422   5.365081   5.859772
    12  C    5.188958   3.956730   2.919585   5.143945   5.806644
    13  C    6.289161   5.227883   3.448429   5.883314   7.086755
    14  C    7.304328   6.400042   4.365824   6.706687   8.188055
    15  C    7.382427   6.549849   4.778039   6.867321   8.206406
    16  C    6.482377   5.602518   4.419008   6.253449   7.143903
    17  H    6.551018   5.482978   3.630357   6.095867   7.365601
    18  H    8.207384   7.364985   5.092316   7.452152   9.167584
    19  H    6.866084   6.094194   5.166641   6.710306   7.450043
    20  H    4.776284   3.628744   3.739322   5.165726   5.090144
    21  C    5.818431   3.843781   3.850260   6.060610   6.072360
    22  H    6.261943   4.459429   4.099096   6.355969   6.611723
    23  H    6.251281   3.702876   4.766418   6.807649   6.127387
    24  O    1.400339   4.531316   4.602540   2.718402   2.576910
    25  H    1.989808   5.340186   4.645392   2.389534   3.539647
    26  O    8.625212   7.911586   5.983946   7.967660   9.506865
    27  H    8.807799   8.144747   6.426810   8.224415   9.630636
                   11         12         13         14         15
    11  C    0.000000
    12  C    1.406064   0.000000
    13  C    2.410710   1.406350   0.000000
    14  C    2.798030   2.447842   1.399145   0.000000
    15  C    2.419707   2.818739   2.413417   1.396858   0.000000
    16  C    1.399281   2.443917   2.791287   2.427638   1.400857
    17  H    3.398548   2.158873   1.086943   2.148816   3.394253
    18  H    3.882009   3.435174   2.171836   1.084093   2.145431
    19  H    2.159474   3.425709   3.878726   3.414087   2.164937
    20  H    1.086348   2.160100   3.399230   3.884300   3.400345
    21  C    2.790284   1.610484   1.973820   3.215248   3.931864
    22  H    3.760109   2.436359   2.287010   3.551911   4.554319
    23  H    3.279038   2.436743   2.936938   4.005596   4.556170
    24  O    6.594964   6.558851   7.648406   8.613867   8.625239
    25  H    6.951283   6.910339   7.895420   8.789948   8.807695
    26  O    3.721352   4.217950   3.670321   2.383878   1.400340
    27  H    3.932728   4.705425   4.397676   3.224933   1.989809
                   16         17         18         19         20
    16  C    0.000000
    17  H    3.878200   0.000000
    18  H    3.403192   2.493645   0.000000
    19  H    1.087447   4.965646   4.300491   0.000000
    20  H    2.149862   4.302334   4.968216   2.473630   0.000000
    21  C    3.772722   2.028218   3.953150   4.739861   3.330346
    22  H    4.643873   1.763131   4.044367   5.668942   4.363838
    23  H    4.261678   3.026957   4.733401   5.106889   3.607798
    24  O    7.686632   7.912851   9.507984   7.966305   5.982144
    25  H    7.946426   8.146271   9.631933   8.222587   6.424585
    26  O    2.458210   4.531316   2.576924   2.718385   4.602542
    27  H    2.545525   5.340182   3.539658   2.389520   4.645398
                   21         22         23         24         25
    21  C    0.000000
    22  H    1.099239   0.000000
    23  H    1.099243   1.753611   0.000000
    24  O    7.217268   7.646611   7.624477   0.000000
    25  H    7.678374   8.060735   8.193132   0.976153   0.000000
    26  O    5.257358   5.808729   5.827763   9.812157   9.932615
    27  H    5.842506   6.508664   6.331930   9.932774  10.058726
                   26         27
    26  O    0.000000
    27  H    0.976153   0.000000
 Symmetry turned off by external request.
 Stoichiometry    C13H12O2
 Framework group  C1[X(C13H12O2)]
 Deg. of freedom    75
 Full point group                 C1      NOp   1
 Rotational constants (GHZ):           1.4076788           0.2482025           0.2334536
 Standard basis: 6-31++G(d,p) (6D, 7F)
   357 basis functions,   576 primitive gaussians,   357 cartesian basis functions
    53 alpha electrons       53 beta electrons
       nuclear repulsion energy       860.7351081411 Hartrees.
 NAtoms=   27 NActive=   27 NUniq=   27 SFac= 1.00D+00 NAtFMM=   60 NAOKFM=F Big=F
 Integral buffers will be    131072 words long.
 Raffenetti 2 integral format.
 Two-electron integral symmetry is turned off.
 One-electron integrals computed using PRISM.
 NBasis=   357 RedAO= T EigKep=  1.11D-06  NBF=   357
 NBsUse=   356 1.00D-06 EigRej=  8.14D-07 NBFU=   356
 Initial guess from the checkpoint file:  "C:\Users\Administrator\Desktop\dataset_dft\C12H8O1\C12H8O1.chk"
 B after Tr=    -0.003639    0.004861    0.018513
         Rot=    1.000000   -0.000446   -0.000306   -0.000038 Ang=  -0.06 deg.
 ExpMin= 3.60D-02 ExpMax= 5.48D+03 ExpMxC= 8.25D+02 IAcc=3 IRadAn=         5 AccDes= 0.00D+00
 Harris functional with IExCor=  402 and IRadAn=       5 diagonalized for initial guess.
 HarFok:  IExCor=  402 AccDes= 0.00D+00 IRadAn=         5 IDoV= 1 UseB2=F ITyADJ=14
 ICtDFT=  3500011 ScaDFX=  1.000000  1.000000  1.000000  1.000000
 FoFCou: FMM=F IPFlag=           0 FMFlag=      100000 FMFlg1=           0
         NFxFlg=           0 DoJE=T BraDBF=F KetDBF=T FulRan=T
         wScrn=  0.000000 ICntrl=       500 IOpCl=  0 I1Cent=   200000004 NGrid=           0
         NMat0=    1 NMatS0=      1 NMatT0=    0 NMatD0=    1 NMtDS0=    0 NMtDT0=    0
 Symmetry not used in FoFCou.
 Requested convergence on RMS density matrix=1.00D-08 within 128 cycles.
 Requested convergence on MAX density matrix=1.00D-06.
 Requested convergence on             energy=1.00D-06.
 No special actions if energy rises.
 SCF Done:  E(RB3LYP) =  -652.809864077     A.U. after   17 cycles
            NFock= 17  Conv=0.49D-08     -V/T= 2.0099
 Scan completed.
 
 Summary of the potential surface scan:
   N      B20         SCF    
 ----  ---------  -----------
    1     1.0000   -652.67983
    2     1.1000   -652.87737
    3     1.2000   -652.99330
    4     1.3000   -653.05799
    5     1.4000   -653.09002
    6     1.5000   -653.10084
    7     1.6000   -653.09772
    8     1.7000   -653.08541
    9     1.8000   -653.06719
   10     1.9000   -653.04548
   11     2.0000   -653.02206
   12     2.1000   -652.99826
   13     2.2000   -652.97494
   14     2.3000   -652.95254
   15     2.4000   -652.93114
   16     2.5000   -652.91054
   17     2.6000   -652.89041
   18     2.7000   -652.87041
   19     2.8000   -652.85032
   20     2.9000   -652.83009
   21     3.0000   -652.80986
 ----  ---------  -----------
  
 1|1|UNPC-BF-202112021916|Scan|RB3LYP|6-31++G(d,p)|C13H12O2|ADMINISTRAT
 OR|22-Mar-2023|1||# scan b3lyp/6-31++g(d,p) nosymm||Title Card Require
 d||0,1|C|C,1,B1|C,2,B2,1,A1|C,3,B3,2,A2,1,D1,0|C,4,B4,3,A3,2,D2,0|C,1,
 B5,2,A4,3,D3,0|H,2,B6,1,A5,6,D4,0|H,4,B7,3,A6,2,D5,0|H,5,B8,4,A7,3,D6,
 0|H,1,B9,6,A8,5,D7,0|C,3,B10,2,A9,1,D8,0|C,11,B11,3,A10,2,D9,0|C,12,B1
 2,11,A11,3,D10,0|C,13,B13,12,A12,11,D11,0|C,14,B14,13,A13,12,D12,0|C,1
 1,B15,3,A14,2,D13,0|H,13,B16,12,A15,11,D14,0|H,14,B17,13,A16,12,D15,0|
 H,16,B18,11,A17,3,D16,0|H,11,B19,3,A18,2,D17,0|C,3,B20,2,A19,1,D18,0|H
 ,21,B21,3,A20,2,D19,0|H,21,B22,3,A21,2,D20,0|O,6,B23,1,A22,2,D21,0|H,2
 4,B24,6,A23,1,D22,0|O,15,B25,14,A24,13,D23,0|H,26,B26,15,A25,14,D24,0|
 |B1=1.39914361|B2=1.40635105|B3=1.40606607|B4=1.39928126|B5=1.39685836
 |B6=1.0869428|B7=1.08635068|B8=1.08744685|B9=1.0840927|B10=3.1240951|B
 11=1.40606431|B12=1.40635038|B13=1.39914529|B14=1.39685755|B15=1.39928
 14|B16=1.08694286|B17=1.08409255|B18=1.0874469|B19=1.08634832|B20=1.,s
 ,20,0.1|B21=1.09923927|B22=1.09924308|B23=1.40033854|B24=0.97615312|B2
 5=1.40033957|B26=0.97615296|A1=121.50472392|A2=117.99972089|A3=121.188
 60739|A4=119.34816251|A5=119.08161834|A6=119.59787844|A7=120.02454387|
 A8=119.174572|A9=118.86085457|A10=54.30085041|A11=118.00001416|A12=121
 .50468837|A13=119.34803044|A14=159.11847248|A15=119.41407332|A16=121.4
 7678311|A17=120.02510866|A18=69.10057661|A19=120.94121179|A20=109.4283
 0944|A21=108.34488454|A22=116.91155197|A23=112.48411487|A24=116.911791
 01|A25=112.4840869|D1=-0.12240072|D2=0.19866295|D3=-0.01058278|D4=179.
 90380493|D5=-179.32568685|D6=179.95947585|D7=-179.85173397|D8=-118.041
 55279|D9=-136.57791811|D10=-155.29604841|D11=-0.12434817|D12=-0.008703
 61|D13=138.84404974|D14=179.96257339|D15=179.9131857|D16=-109.11682467
 |D17=21.15132833|D18=178.6393311|D19=-110.10669025|D20=4.81351121|D21=
 179.93357773|D22=179.84920403|D23=179.92296638|D24=179.75846994||Versi
 on=EM64W-G16RevA.03|HF=-652.679833,-652.877374,-652.9933003,-653.05799
 29,-653.0900183,-653.1008445,-653.097722,-653.0854084,-653.0671936,-65
 3.0454779,-653.0220606,-652.9982578,-652.9749361,-652.9525387,-652.931
 1405,-652.9105435,-652.8904121,-652.8704113,-652.8503188,-652.8300875,
 -652.8098641|RMSD=4.760e-009,6.464e-009,4.781e-009,8.139e-009,5.260e-0
 09,3.862e-009,3.143e-009,2.745e-009,2.783e-009,3.237e-009,3.720e-009,4
 .421e-009,6.691e-009,3.170e-009,4.251e-009,6.159e-009,7.771e-009,6.462
 e-009,2.261e-009,4.950e-009,4.861e-009|PG=C01 [X(C13H12O2)]||@


 Statistics are no substitute for judgment.
                            -- Henry Clay
 Job cpu time:       0 days  0 hours 42 minutes 57.0 seconds.
 Elapsed time:       0 days  0 hours 42 minutes 35.3 seconds.
 File lengths (MBytes):  RWF=     91 Int=      0 D2E=      0 Chk=     15 Scr=      1
 Normal termination of Gaussian 16 at Wed Mar 22 22:08:57 2023.
