 Entering Link 1 = I:\G16W\l1.exe PID=     19784.
  
 Copyright (c) 1988,1990,1992,1993,1995,1998,2003,2009,2016,
            Gaussian, Inc.  All Rights Reserved.
  
 This is part of the Gaussian(R) 16 program.  It is based on
 the Gaussian(R) 09 system (copyright 2009, Gaussian, Inc.),
 the Gaussian(R) 03 system (copyright 2003, Gaussian, Inc.),
 the Gaussian(R) 98 system (copyright 1998, Gaussian, Inc.),
 the Gaussian(R) 94 system (copyright 1995, Gaussian, Inc.),
 the Gaussian 92(TM) system (copyright 1992, Gaussian, Inc.),
 the Gaussian 90(TM) system (copyright 1990, Gaussian, Inc.),
 the Gaussian 88(TM) system (copyright 1988, Gaussian, Inc.),
 the Gaussian 86(TM) system (copyright 1986, Carnegie Mellon
 University), and the Gaussian 82(TM) system (copyright 1983,
 Carnegie Mellon University). Gaussian is a federally registered
 trademark of Gaussian, Inc.
  
 This software contains proprietary and confidential information,
 including trade secrets, belonging to Gaussian, Inc.
  
 This software is provided under written license and may be
 used, copied, transmitted, or stored only in accord with that
 written license.
  
 The following legend is applicable only to US Government
 contracts under FAR:
  
                    RESTRICTED RIGHTS LEGEND
  
 Use, reproduction and disclosure by the US Government is
 subject to restrictions as set forth in subparagraphs (a)
 and (c) of the Commercial Computer Software - Restricted
 Rights clause in FAR 52.227-19.
  
 Gaussian, Inc.
 340 Quinnipiac St., Bldg. 40, Wallingford CT 06492
  
  
 ---------------------------------------------------------------
 Warning -- This program may not be used in any manner that
 competes with the business of Gaussian, Inc. or will provide
 assistance to any competitor of Gaussian, Inc.  The licensee
 of this program is prohibited from giving any competitor of
 Gaussian, Inc. access to this program.  By using this program,
 the user acknowledges that Gaussian, Inc. is engaged in the
 business of creating and licensing software in the field of
 computational chemistry and represents and warrants to the
 licensee that it is not a competitor of Gaussian, Inc. and that
 it will not use this program in any manner prohibited above.
 ---------------------------------------------------------------
  

 Cite this work as:
 Gaussian 16, Revision A.03,
 M. J. Frisch, G. W. Trucks, H. B. Schlegel, G. E. Scuseria, 
 M. A. Robb, J. R. Cheeseman, G. Scalmani, V. Barone, 
 G. A. Petersson, H. Nakatsuji, X. Li, M. Caricato, A. V. Marenich, 
 J. Bloino, B. G. Janesko, R. Gomperts, B. Mennucci, H. P. Hratchian, 
 J. V. Ortiz, A. F. Izmaylov, J. L. Sonnenberg, D. Williams-Young, 
 F. Ding, F. Lipparini, F. Egidi, J. Goings, B. Peng, A. Petrone, 
 T. Henderson, D. Ranasinghe, V. G. Zakrzewski, J. Gao, N. Rega, 
 G. Zheng, W. Liang, M. Hada, M. Ehara, K. Toyota, R. Fukuda, 
 J. Hasegawa, M. Ishida, T. Nakajima, Y. Honda, O. Kitao, H. Nakai, 
 T. Vreven, K. Throssell, J. A. Montgomery, Jr., J. E. Peralta, 
 F. Ogliaro, M. J. Bearpark, J. J. Heyd, E. N. Brothers, K. N. Kudin, 
 V. N. Staroverov, T. A. Keith, R. Kobayashi, J. Normand, 
 K. Raghavachari, A. P. Rendell, J. C. Burant, S. S. Iyengar, 
 J. Tomasi, M. Cossi, J. M. Millam, M. Klene, C. Adamo, R. Cammi, 
 J. W. Ochterski, R. L. Martin, K. Morokuma, O. Farkas, 
 J. B. Foresman, and D. J. Fox, Gaussian, Inc., Wallingford CT, 2016.
 
 ******************************************
 Gaussian 16:  EM64W-G16RevA.03 17-Dec-2016
                21-Mar-2023 
 ******************************************
 %nprocshared=16
 Will use up to   16 processors via shared memory.
 %mem=150MW
 %chk=C:\Users\Administrator\Desktop\dataset_dft\C8H6O3\C8H6O3.chk
 --------------------------------
 # scan b3lyp/6-31++g(d,p) nosymm
 --------------------------------
 1/38=1,60=1,172=1/1,8;
 2/12=2,15=1,17=6,18=5,29=3,40=1/2;
 3/5=1,6=6,7=1111,11=2,25=1,30=1,74=-5/1,2,3;
 4//1;
 5/5=2,38=5/2;
 6/7=2,8=2,9=2,10=2,18=1,28=1/1;
 1/60=1/8(1);
 99/9=1/99;
 2/15=1,29=3/2;
 3/5=1,6=6,7=1111,11=2,25=1,30=1,74=-5/1,2,3;
 4/5=5,16=3,69=1/1;
 5/5=2,38=5/2;
 1/60=1/8(-4);
 99/9=1/99;
 -------------------
 Title Card Required
 -------------------
 Symbolic Z-matrix:
 Charge =  0 Multiplicity = 1
 C(PDBName=C,ResName=MOL,ResNum=1)
 C(PDBName=C,ResName=MOL,ResNum=1) 1    B1
 C(PDBName=C,ResName=MOL,ResNum=1) 2    B2       1    A1
 C(PDBName=C,ResName=MOL,ResNum=1) 3    B3       2    A2       1    D1       0
 C(PDBName=C,ResName=MOL,ResNum=1) 4    B4       3    A3       2    D2       0
 C(PDBName=C,ResName=MOL,ResNum=1) 5    B5       4    A4       3    D3       0
 H(PDBName=H,ResName=MOL,ResNum=1) 3    B6       2    A5       1    D4       0
 H(PDBName=H,ResName=MOL,ResNum=1) 4    B7       3    A6       2    D5       0
 H(PDBName=H,ResName=MOL,ResNum=1) 5    B8       4    A7       3    D6       0
 C(PDBName=C,ResName=MOL,ResNum=1) 6    B9       5    A8       4    D7       0
 H(PDBName=H,ResName=MOL,ResNum=1) 10   B10      6    A9       5    D8       0
 O(PDBName=O,ResName=MOL,ResNum=1) 10   B11      6    A10      5    D9       0
 C(PDBName=C,ResName=MOL,ResNum=1) 1    B12      2    A11      3    D10      0
 O(PDBName=O,ResName=MOL,ResNum=1) 13   B13      1    A12      2    D11      0
 H(PDBName=H,ResName=MOL,ResNum=1) 13   B14      1    A13      2    D12      0
 O(PDBName=O,ResName=MOL,ResNum=1) 2    B15      1    A14      6    D13      0
 H(PDBName=H,ResName=MOL,ResNum=1) 16   B16      2    A15      1    D14      0
       Variables:
  B1                    1.41641                  
  B2                    1.40184                  
  B3                    1.38781                  
  B4                    1.39983                  
  B5                    1.39322                  
  B6                    1.08476                  
  B7                    1.08584                  
  B8                    1.08429                  
  B9                    1.50117                  
  B10                   1.09924                  
  B11                   1.     Scan 20    0.1    
  B12                   1.47258                  
  B13                   1.22018                  
  B14                   1.11368                  
  B15                   1.36399                  
  B16                   0.96533                  
  A1                  120.70717                  
  A2                  119.97852                  
  A3                  120.49469                  
  A4                  120.35814                  
  A5                  118.26997                  
  A6                  119.56241                  
  A7                  121.25035                  
  A8                  116.67023                  
  A9                  117.10294                  
  A10                 121.97992                  
  A11                 119.5188                   
  A12                 126.19501                  
  A13                 115.90757                  
  A14                 124.48956                  
  A15                 112.21443                  
  D1                    0.20052                  
  D2                   -0.48168                  
  D3                    0.18979                  
  D4                  179.51916                  
  D5                  179.72238                  
  D6                 -178.84449                  
  D7                 -175.43231                  
  D8                  156.54727                  
  D9                  -21.1966                   
  D10                -178.10749                  
  D11                 163.53528                  
  D12                 -16.9541                   
  D13                 178.79889                  
  D14                  -0.87254                  
 
 Center=      0.66933921     -0.01639185      0.15759329
 Residue   1 PDB Number     1_0 MOL charge    0.00000000 layers R        AvRTP=      0.00000000      0.00000000      0.00000000
 Scan the potential surface.
 Variable   Value     No. Steps Step-Size
 -------- ----------- --------- ---------
    11       1.000000      20      0.1000
 A total of     21 points will be computed.
 ---------------------------------------------------------------------------------------------------
                            Z-MATRIX (ANGSTROMS AND DEGREES)
   CD    Cent   Atom    N1       Length/X        N2       Alpha/Y        N3        Beta/Z          J
 ---------------------------------------------------------------------------------------------------
      1      1  C 
      2      2  C        1   1.416405(     1)
      3      3  C        2   1.401843(     2)      1  120.707(    17)
      4      4  C        3   1.387814(     3)      2  119.979(    18)      1    0.201(    32)      0
      5      5  C        4   1.399832(     4)      3  120.495(    19)      2   -0.482(    33)      0
      6      6  C        5   1.393225(     5)      4  120.358(    20)      3    0.190(    34)      0
      7      7  H        3   1.084756(     6)      2  118.270(    21)      1  179.519(    35)      0
      8      8  H        4   1.085840(     7)      3  119.562(    22)      2  179.722(    36)      0
      9      9  H        5   1.084290(     8)      4  121.250(    23)      3 -178.844(    37)      0
     10     10  C        6   1.501171(     9)      5  116.670(    24)      4 -175.432(    38)      0
     11     11  H       10   1.099244(    10)      6  117.103(    25)      5  156.547(    39)      0
     12     12  O       10   1.000000(    11)      6  121.980(    26)      5  -21.197(    40)      0
     13     13  C        1   1.472578(    12)      2  119.519(    27)      3 -178.107(    41)      0
     14     14  O       13   1.220178(    13)      1  126.195(    28)      2  163.535(    42)      0
     15     15  H       13   1.113681(    14)      1  115.908(    29)      2  -16.954(    43)      0
     16     16  O        2   1.363991(    15)      1  124.490(    30)      6  178.799(    44)      0
     17     17  H       16   0.965333(    16)      2  112.214(    31)      1   -0.873(    45)      0
 ---------------------------------------------------------------------------------------------------
                         Z-Matrix orientation:                         
 ---------------------------------------------------------------------
 Center     Atomic      Atomic             Coordinates (Angstroms)
 Number     Number       Type             X           Y           Z
 ---------------------------------------------------------------------
      1          6           0        0.000000    0.000000    0.000000
      2          6           0        0.000000    0.000000    1.416405
      3          6           0        1.205288    0.000000    2.132257
      4          6           0        2.415384    0.004207    1.452790
      5          6           0        2.444256   -0.001670    0.053268
      6          6           0        1.256849   -0.007847   -0.675499
      7          1           0        1.159177    0.008018    3.216003
      8          1           0        3.344911    0.008756    2.014044
      9          1           0        3.382535   -0.017173   -0.489941
     10          6           0        1.382332   -0.120696   -2.167154
     11          1           0        0.515109   -0.517038   -2.714123
     12          8           0        2.226060    0.119213   -2.647327
     13          6           0       -1.280730    0.042319   -0.725552
     14          8           0       -1.433175    0.326596   -1.902319
     15          1           0       -2.185439   -0.220064   -0.131464
     16          8           0       -1.123825    0.030583    2.188773
     17          1           0       -1.929967    0.066134    1.658925
 ---------------------------------------------------------------------
                    Distance matrix (angstroms):
                    1          2          3          4          5
     1  C    0.000000
     2  C    1.416405   0.000000
     3  C    2.449335   1.401843   0.000000
     4  C    2.818634   2.415662   1.387814   0.000000
     5  C    2.444837   2.798667   2.420174   1.399832   0.000000
     6  C    1.426895   2.440449   2.808240   2.423213   1.393225
     7  H    3.418542   2.140632   1.084756   2.164947   3.413857
     8  H    3.904469   3.397894   2.142905   1.085840   2.157760
     9  H    3.417877   3.882782   3.408317   2.170263   1.084290
    10  C    2.573318   3.842825   4.304747   3.766535   2.464168
    11  H    2.810539   4.194512   4.922507   4.609327   3.412574
    12  O    3.460910   4.635027   4.888825   4.106096   2.712091
    13  C    1.472578   2.496005   3.788027   4.290441   3.805787
    14  O    2.404054   3.629682   4.831766   5.115868   4.355061
    15  H    2.200421   2.687093   4.082877   4.871112   4.638523
    16  O    2.460619   1.363991   2.329999   3.615020   4.158441
    17  H    2.545816   1.946269   3.171473   4.350679   4.660103
                    6          7          8          9         10
     6  C    0.000000
     7  H    3.892760   0.000000
     8  H    3.404985   2.494423   0.000000
     9  H    2.133791   4.321803   2.504402   0.000000
    10  C    1.501171   5.389317   4.620702   2.612388   0.000000
    11  H    2.228327   5.988063   5.535323   3.663193   1.099244
    12  O    2.200823   5.960641   4.795040   2.451602   1.000000
    13  C    2.538568   4.635750   5.376157   4.669592   3.032603
    14  O    2.975428   5.746217   6.186197   5.030314   2.863091
    15  H    3.491468   4.737511   5.936357   5.583189   4.108880
    16  O    3.724666   2.503559   4.472205   5.242621   5.027704
    17  H    3.951051   3.459867   5.287130   5.731252   5.064100
                   11         12         13         14         15
    11  H    0.000000
    12  O    1.826644   0.000000
    13  C    2.737212   3.999588   0.000000
    14  O    2.273006   3.740059   1.220178   0.000000
    15  H    3.748503   5.089793   1.113681   2.000167   0.000000
    16  O    5.198498   5.883660   2.918570   4.113437   2.563854
    17  H    5.044010   5.984913   2.471398   3.605150   1.831029
                   16         17
    16  O    0.000000
    17  H    0.965333   0.000000
 Symmetry turned off by external request.
 Stoichiometry    C8H6O3
 Framework group  C1[X(C8H6O3)]
 Deg. of freedom    45
 Full point group                 C1      NOp   1
 Rotational constants (GHZ):           1.5534793           1.1111032           0.6506478
 Standard basis: 6-31++G(d,p) (6D, 7F)
   245 basis functions,   400 primitive gaussians,   245 cartesian basis functions
    39 alpha electrons       39 beta electrons
       nuclear repulsion energy       569.0971911278 Hartrees.
 NAtoms=   17 NActive=   17 NUniq=   17 SFac= 1.00D+00 NAtFMM=   60 NAOKFM=F Big=F
 Integral buffers will be    131072 words long.
 Raffenetti 2 integral format.
 Two-electron integral symmetry is turned off.
 One-electron integrals computed using PRISM.
 NBasis=   245 RedAO= T EigKep=  2.07D-06  NBF=   245
 NBsUse=   244 1.00D-06 EigRej=  5.39D-07 NBFU=   244
 ExpMin= 3.60D-02 ExpMax= 5.48D+03 ExpMxC= 8.25D+02 IAcc=3 IRadAn=         5 AccDes= 0.00D+00
 Harris functional with IExCor=  402 and IRadAn=       5 diagonalized for initial guess.
 HarFok:  IExCor=  402 AccDes= 0.00D+00 IRadAn=         5 IDoV= 1 UseB2=F ITyADJ=14
 ICtDFT=  3500011 ScaDFX=  1.000000  1.000000  1.000000  1.000000
 FoFCou: FMM=F IPFlag=           0 FMFlag=      100000 FMFlg1=           0
         NFxFlg=           0 DoJE=T BraDBF=F KetDBF=T FulRan=T
         wScrn=  0.000000 ICntrl=       500 IOpCl=  0 I1Cent=   200000004 NGrid=           0
         NMat0=    1 NMatS0=      1 NMatT0=    0 NMatD0=    1 NMtDS0=    0 NMtDT0=    0
 Symmetry not used in FoFCou.
 Requested convergence on RMS density matrix=1.00D-08 within 128 cycles.
 Requested convergence on MAX density matrix=1.00D-06.
 Requested convergence on             energy=1.00D-06.
 No special actions if energy rises.
 SCF Done:  E(RB3LYP) =  -534.019609786     A.U. after   15 cycles
            NFock= 15  Conv=0.57D-08     -V/T= 2.0065

 **********************************************************************

            Population analysis using the SCF density.

 **********************************************************************

 Alpha  occ. eigenvalues --  -19.22062 -19.17478 -19.16379 -10.30534 -10.29473
 Alpha  occ. eigenvalues --  -10.26661 -10.23310 -10.22938 -10.22072 -10.22049
 Alpha  occ. eigenvalues --  -10.21568  -1.19729  -1.10064  -1.06820  -0.88614
 Alpha  occ. eigenvalues --   -0.79831  -0.78068  -0.70048  -0.65469  -0.62004
 Alpha  occ. eigenvalues --   -0.59633  -0.56090  -0.54739  -0.51671  -0.49906
 Alpha  occ. eigenvalues --   -0.48937  -0.48421  -0.47138  -0.45598  -0.44733
 Alpha  occ. eigenvalues --   -0.42115  -0.41232  -0.39534  -0.39136  -0.36556
 Alpha  occ. eigenvalues --   -0.29137  -0.28555  -0.25961  -0.24971
 Alpha virt. eigenvalues --   -0.09550  -0.04526  -0.02325  -0.00720   0.00203
 Alpha virt. eigenvalues --    0.01402   0.02194   0.03181   0.03714   0.04452
 Alpha virt. eigenvalues --    0.05053   0.05458   0.06270   0.06821   0.07868
 Alpha virt. eigenvalues --    0.08523   0.09311   0.09971   0.10858   0.11124
 Alpha virt. eigenvalues --    0.11415   0.11487   0.12170   0.12526   0.13028
 Alpha virt. eigenvalues --    0.13852   0.14568   0.14797   0.15362   0.16424
 Alpha virt. eigenvalues --    0.17147   0.17350   0.17592   0.18070   0.18681
 Alpha virt. eigenvalues --    0.19776   0.20108   0.21148   0.22469   0.23086
 Alpha virt. eigenvalues --    0.23657   0.24892   0.25082   0.25572   0.26134
 Alpha virt. eigenvalues --    0.26724   0.27063   0.27279   0.28595   0.29092
 Alpha virt. eigenvalues --    0.29771   0.30564   0.31075   0.31769   0.32327
 Alpha virt. eigenvalues --    0.32947   0.34035   0.34474   0.35564   0.36620
 Alpha virt. eigenvalues --    0.36917   0.38541   0.38968   0.40481   0.41401
 Alpha virt. eigenvalues --    0.42006   0.45212   0.47941   0.52492   0.58473
 Alpha virt. eigenvalues --    0.60351   0.64769   0.66917   0.68653   0.69198
 Alpha virt. eigenvalues --    0.70908   0.71208   0.72940   0.73902   0.74521
 Alpha virt. eigenvalues --    0.75699   0.76274   0.78971   0.82075   0.83303
 Alpha virt. eigenvalues --    0.85469   0.87635   0.88448   0.92262   0.94500
 Alpha virt. eigenvalues --    0.97067   0.98910   1.01331   1.03160   1.04891
 Alpha virt. eigenvalues --    1.08213   1.08784   1.09769   1.11464   1.13432
 Alpha virt. eigenvalues --    1.16800   1.17769   1.19115   1.19768   1.21447
 Alpha virt. eigenvalues --    1.22755   1.23624   1.24883   1.25585   1.26264
 Alpha virt. eigenvalues --    1.29100   1.29686   1.32020   1.32501   1.33514
 Alpha virt. eigenvalues --    1.35408   1.36753   1.37753   1.39179   1.39986
 Alpha virt. eigenvalues --    1.42893   1.46795   1.48886   1.52358   1.55311
 Alpha virt. eigenvalues --    1.58036   1.62074   1.67180   1.69514   1.73172
 Alpha virt. eigenvalues --    1.74477   1.75514   1.77653   1.78759   1.82844
 Alpha virt. eigenvalues --    1.83731   1.86851   1.88619   1.89833   1.91835
 Alpha virt. eigenvalues --    1.95337   1.96385   1.97844   1.99440   2.01522
 Alpha virt. eigenvalues --    2.03025   2.04959   2.08814   2.13627   2.17895
 Alpha virt. eigenvalues --    2.20721   2.21938   2.25263   2.26710   2.27081
 Alpha virt. eigenvalues --    2.32820   2.34160   2.36572   2.39117   2.39508
 Alpha virt. eigenvalues --    2.44511   2.46456   2.48783   2.49285   2.51378
 Alpha virt. eigenvalues --    2.53147   2.55125   2.57466   2.59180   2.61284
 Alpha virt. eigenvalues --    2.63780   2.68037   2.68673   2.69975   2.73979
 Alpha virt. eigenvalues --    2.75231   2.83289   2.83928   2.90319   2.97790
 Alpha virt. eigenvalues --    3.02515   3.05939   3.10666   3.16056   3.18320
 Alpha virt. eigenvalues --    3.26954   3.30881   3.32452   3.39048   3.46320
 Alpha virt. eigenvalues --    3.51963   3.62061   3.65703   3.82872   4.20074
 Alpha virt. eigenvalues --    4.26536   4.28148   4.29205   4.39173   4.41502
 Alpha virt. eigenvalues --    4.48835   4.52169   4.57063   4.59633   4.87632
          Condensed to atoms (all electrons):
               1          2          3          4          5          6
     1  C   15.984071  -0.547695  -3.640596   1.307054  -3.635187  -4.460661
     2  C   -0.547695  10.241782   0.541561   0.325387  -0.491874  -4.935086
     3  C   -3.640596   0.541561  10.939317  -1.343273  -1.119968   0.420390
     4  C    1.307054   0.325387  -1.343273   6.670724   0.042598  -1.249401
     5  C   -3.635187  -0.491874  -1.119968   0.042598  10.026589   2.917078
     6  C   -4.460661  -4.935086   0.420390  -1.249401   2.917078  16.946896
     7  H   -0.061015  -0.086972   0.534621  -0.179112   0.000490   0.095762
     8  H    0.053027   0.023471  -0.132154   0.396713  -0.025558  -0.022018
     9  H    0.136592   0.031975  -0.042307  -0.009139   0.215381   0.024637
    10  C    1.220022   0.396754   0.904521  -0.483728  -1.675437  -2.260854
    11  H    0.137541   0.010048  -0.012493   0.017209  -0.023703  -0.284309
    12  O    0.021479   0.015736  -0.016219   0.072984   0.019680  -0.289383
    13  C   -0.299396   0.731881  -0.814329   0.548261  -0.184998  -1.218001
    14  O   -0.050138   0.124809   0.053626  -0.011688  -0.091286  -0.250005
    15  H   -0.264249   0.122772   0.018299   0.002654  -0.064174  -0.138325
    16  O    0.280013   0.118765  -0.604507   0.105289   0.014222  -0.020171
    17  H   -0.288618   0.168911   0.168014  -0.015493   0.007657   0.014311
               7          8          9         10         11         12
     1  C   -0.061015   0.053027   0.136592   1.220022   0.137541   0.021479
     2  C   -0.086972   0.023471   0.031975   0.396754   0.010048   0.015736
     3  C    0.534621  -0.132154  -0.042307   0.904521  -0.012493  -0.016219
     4  C   -0.179112   0.396713  -0.009139  -0.483728   0.017209   0.072984
     5  C    0.000490  -0.025558   0.215381  -1.675437  -0.023703   0.019680
     6  C    0.095762  -0.022018   0.024637  -2.260854  -0.284309  -0.289383
     7  H    0.604313  -0.017636  -0.003116   0.019791   0.000086  -0.000210
     8  H   -0.017636   0.608705  -0.005817  -0.018425   0.000293   0.001891
     9  H   -0.003116  -0.005817   0.595179  -0.088840   0.007968   0.009331
    10  C    0.019791  -0.018425  -0.088840   7.567231   0.389813   0.305921
    11  H    0.000086   0.000293   0.007968   0.389813   0.726820  -0.074079
    12  O   -0.000210   0.001891   0.009331   0.305921  -0.074079   8.127578
    13  C   -0.028738   0.012397   0.000717  -0.758176   0.029145   0.035293
    14  O    0.000579  -0.000219  -0.001481   0.087378  -0.032088   0.000731
    15  H    0.001769  -0.000268  -0.000757   0.035393   0.005279   0.000278
    16  O   -0.039834   0.000162   0.000643  -0.005051   0.000046   0.000128
    17  H    0.001935  -0.000241   0.000105  -0.001192  -0.000334  -0.000025
              13         14         15         16         17
     1  C   -0.299396  -0.050138  -0.264249   0.280013  -0.288618
     2  C    0.731881   0.124809   0.122772   0.118765   0.168911
     3  C   -0.814329   0.053626   0.018299  -0.604507   0.168014
     4  C    0.548261  -0.011688   0.002654   0.105289  -0.015493
     5  C   -0.184998  -0.091286  -0.064174   0.014222   0.007657
     6  C   -1.218001  -0.250005  -0.138325  -0.020171   0.014311
     7  H   -0.028738   0.000579   0.001769  -0.039834   0.001935
     8  H    0.012397  -0.000219  -0.000268   0.000162  -0.000241
     9  H    0.000717  -0.001481  -0.000757   0.000643   0.000105
    10  C   -0.758176   0.087378   0.035393  -0.005051  -0.001192
    11  H    0.029145  -0.032088   0.005279   0.000046  -0.000334
    12  O    0.035293   0.000731   0.000278   0.000128  -0.000025
    13  C    7.408215   0.376263   0.437986   0.048133  -0.034538
    14  O    0.376263   8.209256  -0.048253  -0.000418   0.002034
    15  H    0.437986  -0.048253   0.870469  -0.024557  -0.003600
    16  O    0.048133  -0.000418  -0.024557   8.409500   0.170626
    17  H   -0.034538   0.002034  -0.003600   0.170626   0.437565
 Mulliken charges:
               1
     1  C    0.107753
     2  C   -0.792224
     3  C    0.145496
     4  C   -0.197039
     5  C    0.068490
     6  C    0.709141
     7  H    0.157289
     8  H    0.125679
     9  H    0.128930
    10  C    0.364881
    11  H    0.102759
    12  O   -0.231113
    13  C   -0.290116
    14  O   -0.369100
    15  H    0.049282
    16  O   -0.452989
    17  H    0.372881
 Sum of Mulliken charges =   0.00000
 Mulliken charges with hydrogens summed into heavy atoms:
               1
     1  C    0.107753
     2  C   -0.792224
     3  C    0.302785
     4  C   -0.071360
     5  C    0.197420
     6  C    0.709141
    10  C    0.467641
    12  O   -0.231113
    13  C   -0.240835
    14  O   -0.369100
    16  O   -0.080108
 Electronic spatial extent (au):  <R**2>=           1733.3110
 Charge=              0.0000 electrons
 Dipole moment (field-independent basis, Debye):
    X=             -0.0758    Y=             -0.8271    Z=              3.2707  Tot=              3.3745
 Quadrupole moment (field-independent basis, Debye-Ang):
   XX=            -58.6446   YY=            -64.2256   ZZ=            -71.7651
   XY=             -0.2105   XZ=              2.7168   YZ=              2.3656
 Traceless Quadrupole moment (field-independent basis, Debye-Ang):
   XX=              6.2338   YY=              0.6528   ZZ=             -6.8867
   XY=             -0.2105   XZ=              2.7168   YZ=              2.3656
 Octapole moment (field-independent basis, Debye-Ang**2):
  XXX=           -117.5090  YYY=             -4.5263  ZZZ=             29.8485  XYY=            -42.3599
  XXY=             -5.0261  XXZ=             34.7206  XZZ=            -32.5485  YZZ=             -6.3938
  YYZ=             -2.4684  XYZ=              0.3757
 Hexadecapole moment (field-independent basis, Debye-Ang**3):
 XXXX=           -970.6131 YYYY=            -75.1170 ZZZZ=          -1176.2131 XXXY=              2.4323
 XXXZ=             58.6291 YYYX=              6.8741 YYYZ=              6.7803 ZZZX=             91.9187
 ZZZY=             17.8890 XXYY=           -195.2321 XXZZ=           -401.5069 YYZZ=           -202.8918
 XXYZ=             12.5830 YYXZ=              1.6481 ZZXY=              0.1000
 N-N= 5.690971911278D+02 E-N=-2.384214432284D+03  KE= 5.305447166591D+02
 Variable Step   Value    
 -------- ---- -----------
    11       1    2.078699
 ---------------------------------------------------------------------------------------------------
                            Z-MATRIX (ANGSTROMS AND DEGREES)
   CD    Cent   Atom    N1       Length/X        N2       Alpha/Y        N3        Beta/Z          J
 ---------------------------------------------------------------------------------------------------
      1      1  C 
      2      2  C        1   1.416405(     1)
      3      3  C        2   1.401843(     2)      1  120.707(    17)
      4      4  C        3   1.387814(     3)      2  119.979(    18)      1    0.201(    32)      0
      5      5  C        4   1.399832(     4)      3  120.495(    19)      2   -0.482(    33)      0
      6      6  C        5   1.393225(     5)      4  120.358(    20)      3    0.190(    34)      0
      7      7  H        3   1.084756(     6)      2  118.270(    21)      1  179.519(    35)      0
      8      8  H        4   1.085840(     7)      3  119.562(    22)      2  179.722(    36)      0
      9      9  H        5   1.084290(     8)      4  121.250(    23)      3 -178.844(    37)      0
     10     10  C        6   1.501171(     9)      5  116.670(    24)      4 -175.432(    38)      0
     11     11  H       10   1.099244(    10)      6  117.103(    25)      5  156.547(    39)      0
     12     12  O       10   1.100000(    11)      6  121.980(    26)      5  -21.197(    40)      0
     13     13  C        1   1.472578(    12)      2  119.519(    27)      3 -178.107(    41)      0
     14     14  O       13   1.220178(    13)      1  126.195(    28)      2  163.535(    42)      0
     15     15  H       13   1.113681(    14)      1  115.908(    29)      2  -16.954(    43)      0
     16     16  O        2   1.363991(    15)      1  124.490(    30)      6  178.799(    44)      0
     17     17  H       16   0.965333(    16)      2  112.214(    31)      1   -0.873(    45)      0
 ---------------------------------------------------------------------------------------------------
                         Z-Matrix orientation:                         
 ---------------------------------------------------------------------
 Center     Atomic      Atomic             Coordinates (Angstroms)
 Number     Number       Type             X           Y           Z
 ---------------------------------------------------------------------
      1          6           0        0.000000    0.000000    0.000000
      2          6           0        0.000000    0.000000    1.416405
      3          6           0        1.205288    0.000000    2.132257
      4          6           0        2.415384    0.004207    1.452790
      5          6           0        2.444256   -0.001670    0.053268
      6          6           0        1.256849   -0.007847   -0.675499
      7          1           0        1.159177    0.008018    3.216003
      8          1           0        3.344911    0.008756    2.014044
      9          1           0        3.382535   -0.017173   -0.489941
     10          6           0        1.382332   -0.120696   -2.167154
     11          1           0        0.515109   -0.517038   -2.714123
     12          8           0        2.310433    0.143204   -2.695345
     13          6           0       -1.280730    0.042319   -0.725552
     14          8           0       -1.433175    0.326596   -1.902319
     15          1           0       -2.185439   -0.220064   -0.131464
     16          8           0       -1.123825    0.030583    2.188773
     17          1           0       -1.929967    0.066134    1.658925
 ---------------------------------------------------------------------
                    Distance matrix (angstroms):
                    1          2          3          4          5
     1  C    0.000000
     2  C    1.416405   0.000000
     3  C    2.449335   1.401843   0.000000
     4  C    2.818634   2.415662   1.387814   0.000000
     5  C    2.444837   2.798667   2.420174   1.399832   0.000000
     6  C    1.426895   2.440449   2.808240   2.423213   1.393225
     7  H    3.418542   2.140632   1.084756   2.164947   3.413857
     8  H    3.904469   3.397894   2.142905   1.085840   2.157760
     9  H    3.417877   3.882782   3.408317   2.170263   1.084290
    10  C    2.573318   3.842825   4.304747   3.766535   2.464168
    11  H    2.810539   4.194512   4.922507   4.609327   3.412574
    12  O    3.552955   4.718590   4.954552   4.151789   2.755679
    13  C    1.472578   2.496005   3.788027   4.290441   3.805787
    14  O    2.404054   3.629682   4.831766   5.115868   4.355061
    15  H    2.200421   2.687093   4.082877   4.871112   4.638523
    16  O    2.460619   1.363991   2.329999   3.615020   4.158441
    17  H    2.545816   1.946269   3.171473   4.350679   4.660103
                    6          7          8          9         10
     6  C    0.000000
     7  H    3.892760   0.000000
     8  H    3.404985   2.494423   0.000000
     9  H    2.133791   4.321803   2.504402   0.000000
    10  C    1.501171   5.389317   4.620702   2.612388   0.000000
    11  H    2.228327   5.988063   5.535323   3.663193   1.099244
    12  O    2.283119   6.023927   4.823542   2.457423   1.100000
    13  C    2.538568   4.635750   5.376157   4.669592   3.032603
    14  O    2.975428   5.746217   6.186197   5.030314   2.863091
    15  H    3.491468   4.737511   5.936357   5.583189   4.108880
    16  O    3.724666   2.503559   4.472205   5.242621   5.027704
    17  H    3.951051   3.459867   5.287130   5.731252   5.064100
                   11         12         13         14         15
    11  H    0.000000
    12  O    1.912971   0.000000
    13  C    2.737212   4.097158   0.000000
    14  O    2.273006   3.831073   1.220178   0.000000
    15  H    3.748503   5.188285   1.113681   2.000167   0.000000
    16  O    5.198498   5.971718   2.918570   4.113437   2.563854
    17  H    5.044010   6.078371   2.471398   3.605150   1.831029
                   16         17
    16  O    0.000000
    17  H    0.965333   0.000000
 Symmetry turned off by external request.
 Stoichiometry    C8H6O3
 Framework group  C1[X(C8H6O3)]
 Deg. of freedom    45
 Full point group                 C1      NOp   1
 Rotational constants (GHZ):           1.5451954           1.0946204           0.6436377
 Standard basis: 6-31++G(d,p) (6D, 7F)
   245 basis functions,   400 primitive gaussians,   245 cartesian basis functions
    39 alpha electrons       39 beta electrons
       nuclear repulsion energy       565.2004440789 Hartrees.
 NAtoms=   17 NActive=   17 NUniq=   17 SFac= 1.00D+00 NAtFMM=   60 NAOKFM=F Big=F
 Integral buffers will be    131072 words long.
 Raffenetti 2 integral format.
 Two-electron integral symmetry is turned off.
 One-electron integrals computed using PRISM.
 NBasis=   245 RedAO= T EigKep=  2.07D-06  NBF=   245
 NBsUse=   244 1.00D-06 EigRej=  5.39D-07 NBFU=   244
 Initial guess from the checkpoint file:  "C:\Users\Administrator\Desktop\dataset_dft\C8H6O3\C8H6O3.chk"
 B after Tr=     0.016023    0.002949   -0.012423
         Rot=    0.999998   -0.000951    0.001338   -0.000629 Ang=  -0.20 deg.
 ExpMin= 3.60D-02 ExpMax= 5.48D+03 ExpMxC= 8.25D+02 IAcc=3 IRadAn=         5 AccDes= 0.00D+00
 Harris functional with IExCor=  402 and IRadAn=       5 diagonalized for initial guess.
 HarFok:  IExCor=  402 AccDes= 0.00D+00 IRadAn=         5 IDoV= 1 UseB2=F ITyADJ=14
 ICtDFT=  3500011 ScaDFX=  1.000000  1.000000  1.000000  1.000000
 FoFCou: FMM=F IPFlag=           0 FMFlag=      100000 FMFlg1=           0
         NFxFlg=           0 DoJE=T BraDBF=F KetDBF=T FulRan=T
         wScrn=  0.000000 ICntrl=       500 IOpCl=  0 I1Cent=   200000004 NGrid=           0
         NMat0=    1 NMatS0=      1 NMatT0=    0 NMatD0=    1 NMtDS0=    0 NMtDT0=    0
 Symmetry not used in FoFCou.
 Requested convergence on RMS density matrix=1.00D-08 within 128 cycles.
 Requested convergence on MAX density matrix=1.00D-06.
 Requested convergence on             energy=1.00D-06.
 No special actions if energy rises.
 SCF Done:  E(RB3LYP) =  -534.111606971     A.U. after   14 cycles
            NFock= 14  Conv=0.62D-08     -V/T= 2.0082
 Variable Step   Value    
 -------- ---- -----------
    11       2    2.267671
 ---------------------------------------------------------------------------------------------------
                            Z-MATRIX (ANGSTROMS AND DEGREES)
   CD    Cent   Atom    N1       Length/X        N2       Alpha/Y        N3        Beta/Z          J
 ---------------------------------------------------------------------------------------------------
      1      1  C 
      2      2  C        1   1.416405(     1)
      3      3  C        2   1.401843(     2)      1  120.707(    17)
      4      4  C        3   1.387814(     3)      2  119.979(    18)      1    0.201(    32)      0
      5      5  C        4   1.399832(     4)      3  120.495(    19)      2   -0.482(    33)      0
      6      6  C        5   1.393225(     5)      4  120.358(    20)      3    0.190(    34)      0
      7      7  H        3   1.084756(     6)      2  118.270(    21)      1  179.519(    35)      0
      8      8  H        4   1.085840(     7)      3  119.562(    22)      2  179.722(    36)      0
      9      9  H        5   1.084290(     8)      4  121.250(    23)      3 -178.844(    37)      0
     10     10  C        6   1.501171(     9)      5  116.670(    24)      4 -175.432(    38)      0
     11     11  H       10   1.099244(    10)      6  117.103(    25)      5  156.547(    39)      0
     12     12  O       10   1.200000(    11)      6  121.980(    26)      5  -21.197(    40)      0
     13     13  C        1   1.472578(    12)      2  119.519(    27)      3 -178.107(    41)      0
     14     14  O       13   1.220178(    13)      1  126.195(    28)      2  163.535(    42)      0
     15     15  H       13   1.113681(    14)      1  115.908(    29)      2  -16.954(    43)      0
     16     16  O        2   1.363991(    15)      1  124.490(    30)      6  178.799(    44)      0
     17     17  H       16   0.965333(    16)      2  112.214(    31)      1   -0.873(    45)      0
 ---------------------------------------------------------------------------------------------------
                         Z-Matrix orientation:                         
 ---------------------------------------------------------------------
 Center     Atomic      Atomic             Coordinates (Angstroms)
 Number     Number       Type             X           Y           Z
 ---------------------------------------------------------------------
      1          6           0        0.000000    0.000000    0.000000
      2          6           0        0.000000    0.000000    1.416405
      3          6           0        1.205288    0.000000    2.132257
      4          6           0        2.415384    0.004207    1.452790
      5          6           0        2.444256   -0.001670    0.053268
      6          6           0        1.256849   -0.007847   -0.675499
      7          1           0        1.159177    0.008018    3.216003
      8          1           0        3.344911    0.008756    2.014044
      9          1           0        3.382535   -0.017173   -0.489941
     10          6           0        1.382332   -0.120696   -2.167154
     11          1           0        0.515109   -0.517038   -2.714123
     12          8           0        2.394805    0.167195   -2.743362
     13          6           0       -1.280730    0.042319   -0.725552
     14          8           0       -1.433175    0.326596   -1.902319
     15          1           0       -2.185439   -0.220064   -0.131464
     16          8           0       -1.123825    0.030583    2.188773
     17          1           0       -1.929967    0.066134    1.658925
 ---------------------------------------------------------------------
                    Distance matrix (angstroms):
                    1          2          3          4          5
     1  C    0.000000
     2  C    1.416405   0.000000
     3  C    2.449335   1.401843   0.000000
     4  C    2.818634   2.415662   1.387814   0.000000
     5  C    2.444837   2.798667   2.420174   1.399832   0.000000
     6  C    1.426895   2.440449   2.808240   2.423213   1.393225
     7  H    3.418542   2.140632   1.084756   2.164947   3.413857
     8  H    3.904469   3.397894   2.142905   1.085840   2.157760
     9  H    3.417877   3.882782   3.408317   2.170263   1.084290
    10  C    2.573318   3.842825   4.304747   3.766535   2.464168
    11  H    2.810539   4.194512   4.922507   4.609327   3.412574
    12  O    3.645419   4.802782   5.021411   4.199366   2.802160
    13  C    1.472578   2.496005   3.788027   4.290441   3.805787
    14  O    2.404054   3.629682   4.831766   5.115868   4.355061
    15  H    2.200421   2.687093   4.082877   4.871112   4.638523
    16  O    2.460619   1.363991   2.329999   3.615020   4.158441
    17  H    2.545816   1.946269   3.171473   4.350679   4.660103
                    6          7          8          9         10
     6  C    0.000000
     7  H    3.892760   0.000000
     8  H    3.404985   2.494423   0.000000
     9  H    2.133791   4.321803   2.504402   0.000000
    10  C    1.501171   5.389317   4.620702   2.612388   0.000000
    11  H    2.228327   5.988063   5.535323   3.663193   1.099244
    12  O    2.366779   6.088197   4.853938   2.467287   1.200000
    13  C    2.538568   4.635750   5.376157   4.669592   3.032603
    14  O    2.975428   5.746217   6.186197   5.030314   2.863091
    15  H    3.491468   4.737511   5.936357   5.583189   4.108880
    16  O    3.724666   2.503559   4.472205   5.242621   5.027704
    17  H    3.951051   3.459867   5.287130   5.731252   5.064100
                   11         12         13         14         15
    11  H    0.000000
    12  O    2.000572   0.000000
    13  C    2.737212   4.194843   0.000000
    14  O    2.273006   3.922524   1.220178   0.000000
    15  H    3.748503   5.286834   1.113681   2.000167   0.000000
    16  O    5.198498   6.060147   2.918570   4.113437   2.563854
    17  H    5.044010   6.172034   2.471398   3.605150   1.831029
                   16         17
    16  O    0.000000
    17  H    0.965333   0.000000
 Symmetry turned off by external request.
 Stoichiometry    C8H6O3
 Framework group  C1[X(C8H6O3)]
 Deg. of freedom    45
 Full point group                 C1      NOp   1
 Rotational constants (GHZ):           1.5375048           1.0776911           0.6365555
 Standard basis: 6-31++G(d,p) (6D, 7F)
   245 basis functions,   400 primitive gaussians,   245 cartesian basis functions
    39 alpha electrons       39 beta electrons
       nuclear repulsion energy       561.7410319938 Hartrees.
 NAtoms=   17 NActive=   17 NUniq=   17 SFac= 1.00D+00 NAtFMM=   60 NAOKFM=F Big=F
 Integral buffers will be    131072 words long.
 Raffenetti 2 integral format.
 Two-electron integral symmetry is turned off.
 One-electron integrals computed using PRISM.
 NBasis=   245 RedAO= T EigKep=  2.05D-06  NBF=   245
 NBsUse=   244 1.00D-06 EigRej=  5.38D-07 NBFU=   244
 Initial guess from the checkpoint file:  "C:\Users\Administrator\Desktop\dataset_dft\C8H6O3\C8H6O3.chk"
 B after Tr=     0.016006    0.002950   -0.012442
         Rot=    0.999998   -0.000935    0.001323   -0.000614 Ang=  -0.20 deg.
 ExpMin= 3.60D-02 ExpMax= 5.48D+03 ExpMxC= 8.25D+02 IAcc=3 IRadAn=         5 AccDes= 0.00D+00
 Harris functional with IExCor=  402 and IRadAn=       5 diagonalized for initial guess.
 HarFok:  IExCor=  402 AccDes= 0.00D+00 IRadAn=         5 IDoV= 1 UseB2=F ITyADJ=14
 ICtDFT=  3500011 ScaDFX=  1.000000  1.000000  1.000000  1.000000
 FoFCou: FMM=F IPFlag=           0 FMFlag=      100000 FMFlg1=           0
         NFxFlg=           0 DoJE=T BraDBF=F KetDBF=T FulRan=T
         wScrn=  0.000000 ICntrl=       500 IOpCl=  0 I1Cent=   200000004 NGrid=           0
         NMat0=    1 NMatS0=      1 NMatT0=    0 NMatD0=    1 NMtDS0=    0 NMtDT0=    0
 Symmetry not used in FoFCou.
 Requested convergence on RMS density matrix=1.00D-08 within 128 cycles.
 Requested convergence on MAX density matrix=1.00D-06.
 Requested convergence on             energy=1.00D-06.
 No special actions if energy rises.
 SCF Done:  E(RB3LYP) =  -534.138477716     A.U. after   14 cycles
            NFock= 14  Conv=0.51D-08     -V/T= 2.0092
 Variable Step   Value    
 -------- ---- -----------
    11       3    2.456644
 ---------------------------------------------------------------------------------------------------
                            Z-MATRIX (ANGSTROMS AND DEGREES)
   CD    Cent   Atom    N1       Length/X        N2       Alpha/Y        N3        Beta/Z          J
 ---------------------------------------------------------------------------------------------------
      1      1  C 
      2      2  C        1   1.416405(     1)
      3      3  C        2   1.401843(     2)      1  120.707(    17)
      4      4  C        3   1.387814(     3)      2  119.979(    18)      1    0.201(    32)      0
      5      5  C        4   1.399832(     4)      3  120.495(    19)      2   -0.482(    33)      0
      6      6  C        5   1.393225(     5)      4  120.358(    20)      3    0.190(    34)      0
      7      7  H        3   1.084756(     6)      2  118.270(    21)      1  179.519(    35)      0
      8      8  H        4   1.085840(     7)      3  119.562(    22)      2  179.722(    36)      0
      9      9  H        5   1.084290(     8)      4  121.250(    23)      3 -178.844(    37)      0
     10     10  C        6   1.501171(     9)      5  116.670(    24)      4 -175.432(    38)      0
     11     11  H       10   1.099244(    10)      6  117.103(    25)      5  156.547(    39)      0
     12     12  O       10   1.300000(    11)      6  121.980(    26)      5  -21.197(    40)      0
     13     13  C        1   1.472578(    12)      2  119.519(    27)      3 -178.107(    41)      0
     14     14  O       13   1.220178(    13)      1  126.195(    28)      2  163.535(    42)      0
     15     15  H       13   1.113681(    14)      1  115.908(    29)      2  -16.954(    43)      0
     16     16  O        2   1.363991(    15)      1  124.490(    30)      6  178.799(    44)      0
     17     17  H       16   0.965333(    16)      2  112.214(    31)      1   -0.873(    45)      0
 ---------------------------------------------------------------------------------------------------
                         Z-Matrix orientation:                         
 ---------------------------------------------------------------------
 Center     Atomic      Atomic             Coordinates (Angstroms)
 Number     Number       Type             X           Y           Z
 ---------------------------------------------------------------------
      1          6           0        0.000000    0.000000    0.000000
      2          6           0        0.000000    0.000000    1.416405
      3          6           0        1.205288    0.000000    2.132257
      4          6           0        2.415384    0.004207    1.452790
      5          6           0        2.444256   -0.001670    0.053268
      6          6           0        1.256849   -0.007847   -0.675499
      7          1           0        1.159177    0.008018    3.216003
      8          1           0        3.344911    0.008756    2.014044
      9          1           0        3.382535   -0.017173   -0.489941
     10          6           0        1.382332   -0.120696   -2.167154
     11          1           0        0.515109   -0.517038   -2.714123
     12          8           0        2.479178    0.191186   -2.791379
     13          6           0       -1.280730    0.042319   -0.725552
     14          8           0       -1.433175    0.326596   -1.902319
     15          1           0       -2.185439   -0.220064   -0.131464
     16          8           0       -1.123825    0.030583    2.188773
     17          1           0       -1.929967    0.066134    1.658925
 ---------------------------------------------------------------------
                    Distance matrix (angstroms):
                    1          2          3          4          5
     1  C    0.000000
     2  C    1.416405   0.000000
     3  C    2.449335   1.401843   0.000000
     4  C    2.818634   2.415662   1.387814   0.000000
     5  C    2.444837   2.798667   2.420174   1.399832   0.000000
     6  C    1.426895   2.440449   2.808240   2.423213   1.393225
     7  H    3.418542   2.140632   1.084756   2.164947   3.413857
     8  H    3.904469   3.397894   2.142905   1.085840   2.157760
     9  H    3.417877   3.882782   3.408317   2.170263   1.084290
    10  C    2.573318   3.842825   4.304747   3.766535   2.464168
    11  H    2.810539   4.194512   4.922507   4.609327   3.412574
    12  O    3.738272   4.887569   5.089356   4.248764   2.851391
    13  C    1.472578   2.496005   3.788027   4.290441   3.805787
    14  O    2.404054   3.629682   4.831766   5.115868   4.355061
    15  H    2.200421   2.687093   4.082877   4.871112   4.638523
    16  O    2.460619   1.363991   2.329999   3.615020   4.158441
    17  H    2.545816   1.946269   3.171473   4.350679   4.660103
                    6          7          8          9         10
     6  C    0.000000
     7  H    3.892760   0.000000
     8  H    3.404985   2.494423   0.000000
     9  H    2.133791   4.321803   2.504402   0.000000
    10  C    1.501171   5.389317   4.620702   2.612388   0.000000
    11  H    2.228327   5.988063   5.535323   3.663193   1.099244
    12  O    2.451663   6.153422   4.886191   2.481146   1.300000
    13  C    2.538568   4.635750   5.376157   4.669592   3.032603
    14  O    2.975428   5.746217   6.186197   5.030314   2.863091
    15  H    3.491468   4.737511   5.936357   5.583189   4.108880
    16  O    3.724666   2.503559   4.472205   5.242621   5.027704
    17  H    3.951051   3.459867   5.287130   5.731252   5.064100
                   11         12         13         14         15
    11  H    0.000000
    12  O    2.089286   0.000000
    13  C    2.737212   4.292634   0.000000
    14  O    2.273006   4.014383   1.220178   0.000000
    15  H    3.748503   5.385436   1.113681   2.000167   0.000000
    16  O    5.198498   6.148930   2.918570   4.113437   2.563854
    17  H    5.044010   6.265892   2.471398   3.605150   1.831029
                   16         17
    16  O    0.000000
    17  H    0.965333   0.000000
 Symmetry turned off by external request.
 Stoichiometry    C8H6O3
 Framework group  C1[X(C8H6O3)]
 Deg. of freedom    45
 Full point group                 C1      NOp   1
 Rotational constants (GHZ):           1.5303720           1.0603896           0.6294105
 Standard basis: 6-31++G(d,p) (6D, 7F)
   245 basis functions,   400 primitive gaussians,   245 cartesian basis functions
    39 alpha electrons       39 beta electrons
       nuclear repulsion energy       558.6283322483 Hartrees.
 NAtoms=   17 NActive=   17 NUniq=   17 SFac= 1.00D+00 NAtFMM=   60 NAOKFM=F Big=F
 Integral buffers will be    131072 words long.
 Raffenetti 2 integral format.
 Two-electron integral symmetry is turned off.
 One-electron integrals computed using PRISM.
 NBasis=   245 RedAO= T EigKep=  2.01D-06  NBF=   245
 NBsUse=   244 1.00D-06 EigRej=  5.37D-07 NBFU=   244
 Initial guess from the checkpoint file:  "C:\Users\Administrator\Desktop\dataset_dft\C8H6O3\C8H6O3.chk"
 B after Tr=     0.015990    0.002952   -0.012458
         Rot=    0.999999   -0.000920    0.001309   -0.000600 Ang=  -0.20 deg.
 ExpMin= 3.60D-02 ExpMax= 5.48D+03 ExpMxC= 8.25D+02 IAcc=3 IRadAn=         5 AccDes= 0.00D+00
 Harris functional with IExCor=  402 and IRadAn=       5 diagonalized for initial guess.
 HarFok:  IExCor=  402 AccDes= 0.00D+00 IRadAn=         5 IDoV= 1 UseB2=F ITyADJ=14
 ICtDFT=  3500011 ScaDFX=  1.000000  1.000000  1.000000  1.000000
 FoFCou: FMM=F IPFlag=           0 FMFlag=      100000 FMFlg1=           0
         NFxFlg=           0 DoJE=T BraDBF=F KetDBF=T FulRan=T
         wScrn=  0.000000 ICntrl=       500 IOpCl=  0 I1Cent=   200000004 NGrid=           0
         NMat0=    1 NMatS0=      1 NMatT0=    0 NMatD0=    1 NMtDS0=    0 NMtDT0=    0
 Symmetry not used in FoFCou.
 Requested convergence on RMS density matrix=1.00D-08 within 128 cycles.
 Requested convergence on MAX density matrix=1.00D-06.
 Requested convergence on             energy=1.00D-06.
 No special actions if energy rises.
 SCF Done:  E(RB3LYP) =  -534.130899642     A.U. after   14 cycles
            NFock= 14  Conv=0.40D-08     -V/T= 2.0098
 Variable Step   Value    
 -------- ---- -----------
    11       4    2.645617
 ---------------------------------------------------------------------------------------------------
                            Z-MATRIX (ANGSTROMS AND DEGREES)
   CD    Cent   Atom    N1       Length/X        N2       Alpha/Y        N3        Beta/Z          J
 ---------------------------------------------------------------------------------------------------
      1      1  C 
      2      2  C        1   1.416405(     1)
      3      3  C        2   1.401843(     2)      1  120.707(    17)
      4      4  C        3   1.387814(     3)      2  119.979(    18)      1    0.201(    32)      0
      5      5  C        4   1.399832(     4)      3  120.495(    19)      2   -0.482(    33)      0
      6      6  C        5   1.393225(     5)      4  120.358(    20)      3    0.190(    34)      0
      7      7  H        3   1.084756(     6)      2  118.270(    21)      1  179.519(    35)      0
      8      8  H        4   1.085840(     7)      3  119.562(    22)      2  179.722(    36)      0
      9      9  H        5   1.084290(     8)      4  121.250(    23)      3 -178.844(    37)      0
     10     10  C        6   1.501171(     9)      5  116.670(    24)      4 -175.432(    38)      0
     11     11  H       10   1.099244(    10)      6  117.103(    25)      5  156.547(    39)      0
     12     12  O       10   1.400000(    11)      6  121.980(    26)      5  -21.197(    40)      0
     13     13  C        1   1.472578(    12)      2  119.519(    27)      3 -178.107(    41)      0
     14     14  O       13   1.220178(    13)      1  126.195(    28)      2  163.535(    42)      0
     15     15  H       13   1.113681(    14)      1  115.908(    29)      2  -16.954(    43)      0
     16     16  O        2   1.363991(    15)      1  124.490(    30)      6  178.799(    44)      0
     17     17  H       16   0.965333(    16)      2  112.214(    31)      1   -0.873(    45)      0
 ---------------------------------------------------------------------------------------------------
                         Z-Matrix orientation:                         
 ---------------------------------------------------------------------
 Center     Atomic      Atomic             Coordinates (Angstroms)
 Number     Number       Type             X           Y           Z
 ---------------------------------------------------------------------
      1          6           0        0.000000    0.000000    0.000000
      2          6           0        0.000000    0.000000    1.416405
      3          6           0        1.205288    0.000000    2.132257
      4          6           0        2.415384    0.004207    1.452790
      5          6           0        2.444256   -0.001670    0.053268
      6          6           0        1.256849   -0.007847   -0.675499
      7          1           0        1.159177    0.008018    3.216003
      8          1           0        3.344911    0.008756    2.014044
      9          1           0        3.382535   -0.017173   -0.489941
     10          6           0        1.382332   -0.120696   -2.167154
     11          1           0        0.515109   -0.517038   -2.714123
     12          8           0        2.563551    0.215177   -2.839397
     13          6           0       -1.280730    0.042319   -0.725552
     14          8           0       -1.433175    0.326596   -1.902319
     15          1           0       -2.185439   -0.220064   -0.131464
     16          8           0       -1.123825    0.030583    2.188773
     17          1           0       -1.929967    0.066134    1.658925
 ---------------------------------------------------------------------
                    Distance matrix (angstroms):
                    1          2          3          4          5
     1  C    0.000000
     2  C    1.416405   0.000000
     3  C    2.449335   1.401843   0.000000
     4  C    2.818634   2.415662   1.387814   0.000000
     5  C    2.444837   2.798667   2.420174   1.399832   0.000000
     6  C    1.426895   2.440449   2.808240   2.423213   1.393225
     7  H    3.418542   2.140632   1.084756   2.164947   3.413857
     8  H    3.904469   3.397894   2.142905   1.085840   2.157760
     9  H    3.417877   3.882782   3.408317   2.170263   1.084290
    10  C    2.573318   3.842825   4.304747   3.766535   2.464168
    11  H    2.810539   4.194512   4.922507   4.609327   3.412574
    12  O    3.831484   4.972921   5.158345   4.299921   2.903233
    13  C    1.472578   2.496005   3.788027   4.290441   3.805787
    14  O    2.404054   3.629682   4.831766   5.115868   4.355061
    15  H    2.200421   2.687093   4.082877   4.871112   4.638523
    16  O    2.460619   1.363991   2.329999   3.615020   4.158441
    17  H    2.545816   1.946269   3.171473   4.350679   4.660103
                    6          7          8          9         10
     6  C    0.000000
     7  H    3.892760   0.000000
     8  H    3.404985   2.494423   0.000000
     9  H    2.133791   4.321803   2.504402   0.000000
    10  C    1.501171   5.389317   4.620702   2.612388   0.000000
    11  H    2.228327   5.988063   5.535323   3.663193   1.099244
    12  O    2.537649   6.219570   4.920266   2.498932   1.400000
    13  C    2.538568   4.635750   5.376157   4.669592   3.032603
    14  O    2.975428   5.746217   6.186197   5.030314   2.863091
    15  H    3.491468   4.737511   5.936357   5.583189   4.108880
    16  O    3.724666   2.503559   4.472205   5.242621   5.027704
    17  H    3.951051   3.459867   5.287130   5.731252   5.064100
                   11         12         13         14         15
    11  H    0.000000
    12  O    2.178978   0.000000
    13  C    2.737212   4.390525   0.000000
    14  O    2.273006   4.106622   1.220178   0.000000
    15  H    3.748503   5.484089   1.113681   2.000167   0.000000
    16  O    5.198498   6.238053   2.918570   4.113437   2.563854
    17  H    5.044010   6.359938   2.471398   3.605150   1.831029
                   16         17
    16  O    0.000000
    17  H    0.965333   0.000000
 Symmetry turned off by external request.
 Stoichiometry    C8H6O3
 Framework group  C1[X(C8H6O3)]
 Deg. of freedom    45
 Full point group                 C1      NOp   1
 Rotational constants (GHZ):           1.5237588           1.0427888           0.6222115
 Standard basis: 6-31++G(d,p) (6D, 7F)
   245 basis functions,   400 primitive gaussians,   245 cartesian basis functions
    39 alpha electrons       39 beta electrons
       nuclear repulsion energy       555.7970880796 Hartrees.
 NAtoms=   17 NActive=   17 NUniq=   17 SFac= 1.00D+00 NAtFMM=   60 NAOKFM=F Big=F
 Integral buffers will be    131072 words long.
 Raffenetti 2 integral format.
 Two-electron integral symmetry is turned off.
 One-electron integrals computed using PRISM.
 NBasis=   245 RedAO= T EigKep=  1.96D-06  NBF=   245
 NBsUse=   244 1.00D-06 EigRej=  5.36D-07 NBFU=   244
 Initial guess from the checkpoint file:  "C:\Users\Administrator\Desktop\dataset_dft\C8H6O3\C8H6O3.chk"
 B after Tr=     0.015974    0.002955   -0.012474
         Rot=    0.999999   -0.000904    0.001295   -0.000585 Ang=  -0.19 deg.
 ExpMin= 3.60D-02 ExpMax= 5.48D+03 ExpMxC= 8.25D+02 IAcc=3 IRadAn=         5 AccDes= 0.00D+00
 Harris functional with IExCor=  402 and IRadAn=       5 diagonalized for initial guess.
 HarFok:  IExCor=  402 AccDes= 0.00D+00 IRadAn=         5 IDoV= 1 UseB2=F ITyADJ=14
 ICtDFT=  3500011 ScaDFX=  1.000000  1.000000  1.000000  1.000000
 FoFCou: FMM=F IPFlag=           0 FMFlag=      100000 FMFlg1=           0
         NFxFlg=           0 DoJE=T BraDBF=F KetDBF=T FulRan=T
         wScrn=  0.000000 ICntrl=       500 IOpCl=  0 I1Cent=   200000004 NGrid=           0
         NMat0=    1 NMatS0=      1 NMatT0=    0 NMatD0=    1 NMtDS0=    0 NMtDT0=    0
 Symmetry not used in FoFCou.
 Requested convergence on RMS density matrix=1.00D-08 within 128 cycles.
 Requested convergence on MAX density matrix=1.00D-06.
 Requested convergence on             energy=1.00D-06.
 No special actions if energy rises.
 SCF Done:  E(RB3LYP) =  -534.106116131     A.U. after   14 cycles
            NFock= 14  Conv=0.35D-08     -V/T= 2.0102
 Variable Step   Value    
 -------- ---- -----------
    11       5    2.834589
 ---------------------------------------------------------------------------------------------------
                            Z-MATRIX (ANGSTROMS AND DEGREES)
   CD    Cent   Atom    N1       Length/X        N2       Alpha/Y        N3        Beta/Z          J
 ---------------------------------------------------------------------------------------------------
      1      1  C 
      2      2  C        1   1.416405(     1)
      3      3  C        2   1.401843(     2)      1  120.707(    17)
      4      4  C        3   1.387814(     3)      2  119.979(    18)      1    0.201(    32)      0
      5      5  C        4   1.399832(     4)      3  120.495(    19)      2   -0.482(    33)      0
      6      6  C        5   1.393225(     5)      4  120.358(    20)      3    0.190(    34)      0
      7      7  H        3   1.084756(     6)      2  118.270(    21)      1  179.519(    35)      0
      8      8  H        4   1.085840(     7)      3  119.562(    22)      2  179.722(    36)      0
      9      9  H        5   1.084290(     8)      4  121.250(    23)      3 -178.844(    37)      0
     10     10  C        6   1.501171(     9)      5  116.670(    24)      4 -175.432(    38)      0
     11     11  H       10   1.099244(    10)      6  117.103(    25)      5  156.547(    39)      0
     12     12  O       10   1.500000(    11)      6  121.980(    26)      5  -21.197(    40)      0
     13     13  C        1   1.472578(    12)      2  119.519(    27)      3 -178.107(    41)      0
     14     14  O       13   1.220178(    13)      1  126.195(    28)      2  163.535(    42)      0
     15     15  H       13   1.113681(    14)      1  115.908(    29)      2  -16.954(    43)      0
     16     16  O        2   1.363991(    15)      1  124.490(    30)      6  178.799(    44)      0
     17     17  H       16   0.965333(    16)      2  112.214(    31)      1   -0.873(    45)      0
 ---------------------------------------------------------------------------------------------------
                         Z-Matrix orientation:                         
 ---------------------------------------------------------------------
 Center     Atomic      Atomic             Coordinates (Angstroms)
 Number     Number       Type             X           Y           Z
 ---------------------------------------------------------------------
      1          6           0        0.000000    0.000000    0.000000
      2          6           0        0.000000    0.000000    1.416405
      3          6           0        1.205288    0.000000    2.132257
      4          6           0        2.415384    0.004207    1.452790
      5          6           0        2.444256   -0.001670    0.053268
      6          6           0        1.256849   -0.007847   -0.675499
      7          1           0        1.159177    0.008018    3.216003
      8          1           0        3.344911    0.008756    2.014044
      9          1           0        3.382535   -0.017173   -0.489941
     10          6           0        1.382332   -0.120696   -2.167154
     11          1           0        0.515109   -0.517038   -2.714123
     12          8           0        2.647924    0.239168   -2.887414
     13          6           0       -1.280730    0.042319   -0.725552
     14          8           0       -1.433175    0.326596   -1.902319
     15          1           0       -2.185439   -0.220064   -0.131464
     16          8           0       -1.123825    0.030583    2.188773
     17          1           0       -1.929967    0.066134    1.658925
 ---------------------------------------------------------------------
                    Distance matrix (angstroms):
                    1          2          3          4          5
     1  C    0.000000
     2  C    1.416405   0.000000
     3  C    2.449335   1.401843   0.000000
     4  C    2.818634   2.415662   1.387814   0.000000
     5  C    2.444837   2.798667   2.420174   1.399832   0.000000
     6  C    1.426895   2.440449   2.808240   2.423213   1.393225
     7  H    3.418542   2.140632   1.084756   2.164947   3.413857
     8  H    3.904469   3.397894   2.142905   1.085840   2.157760
     9  H    3.417877   3.882782   3.408317   2.170263   1.084290
    10  C    2.573318   3.842825   4.304747   3.766535   2.464168
    11  H    2.810539   4.194512   4.922507   4.609327   3.412574
    12  O    3.925030   5.058810   5.228336   4.352775   2.957549
    13  C    1.472578   2.496005   3.788027   4.290441   3.805787
    14  O    2.404054   3.629682   4.831766   5.115868   4.355061
    15  H    2.200421   2.687093   4.082877   4.871112   4.638523
    16  O    2.460619   1.363991   2.329999   3.615020   4.158441
    17  H    2.545816   1.946269   3.171473   4.350679   4.660103
                    6          7          8          9         10
     6  C    0.000000
     7  H    3.892760   0.000000
     8  H    3.404985   2.494423   0.000000
     9  H    2.133791   4.321803   2.504402   0.000000
    10  C    1.501171   5.389317   4.620702   2.612388   0.000000
    11  H    2.228327   5.988063   5.535323   3.663193   1.099244
    12  O    2.624629   6.286613   4.956124   2.520564   1.500000
    13  C    2.538568   4.635750   5.376157   4.669592   3.032603
    14  O    2.975428   5.746217   6.186197   5.030314   2.863091
    15  H    3.491468   4.737511   5.936357   5.583189   4.108880
    16  O    3.724666   2.503559   4.472205   5.242621   5.027704
    17  H    3.951051   3.459867   5.287130   5.731252   5.064100
                   11         12         13         14         15
    11  H    0.000000
    12  O    2.269532   0.000000
    13  C    2.737212   4.488509   0.000000
    14  O    2.273006   4.199217   1.220178   0.000000
    15  H    3.748503   5.582790   1.113681   2.000167   0.000000
    16  O    5.198498   6.327501   2.918570   4.113437   2.563854
    17  H    5.044010   6.454163   2.471398   3.605150   1.831029
                   16         17
    16  O    0.000000
    17  H    0.965333   0.000000
 Symmetry turned off by external request.
 Stoichiometry    C8H6O3
 Framework group  C1[X(C8H6O3)]
 Deg. of freedom    45
 Full point group                 C1      NOp   1
 Rotational constants (GHZ):           1.5176266           1.0249588           0.6149671
 Standard basis: 6-31++G(d,p) (6D, 7F)
   245 basis functions,   400 primitive gaussians,   245 cartesian basis functions
    39 alpha electrons       39 beta electrons
       nuclear repulsion energy       553.1989872982 Hartrees.
 NAtoms=   17 NActive=   17 NUniq=   17 SFac= 1.00D+00 NAtFMM=   60 NAOKFM=F Big=F
 Integral buffers will be    131072 words long.
 Raffenetti 2 integral format.
 Two-electron integral symmetry is turned off.
 One-electron integrals computed using PRISM.
 NBasis=   245 RedAO= T EigKep=  1.91D-06  NBF=   245
 NBsUse=   244 1.00D-06 EigRej=  5.35D-07 NBFU=   244
 Initial guess from the checkpoint file:  "C:\Users\Administrator\Desktop\dataset_dft\C8H6O3\C8H6O3.chk"
 B after Tr=     0.015959    0.002959   -0.012488
         Rot=    0.999999   -0.000889    0.001280   -0.000571 Ang=  -0.19 deg.
 ExpMin= 3.60D-02 ExpMax= 5.48D+03 ExpMxC= 8.25D+02 IAcc=3 IRadAn=         5 AccDes= 0.00D+00
 Harris functional with IExCor=  402 and IRadAn=       5 diagonalized for initial guess.
 HarFok:  IExCor=  402 AccDes= 0.00D+00 IRadAn=         5 IDoV= 1 UseB2=F ITyADJ=14
 ICtDFT=  3500011 ScaDFX=  1.000000  1.000000  1.000000  1.000000
 FoFCou: FMM=F IPFlag=           0 FMFlag=      100000 FMFlg1=           0
         NFxFlg=           0 DoJE=T BraDBF=F KetDBF=T FulRan=T
         wScrn=  0.000000 ICntrl=       500 IOpCl=  0 I1Cent=   200000004 NGrid=           0
         NMat0=    1 NMatS0=      1 NMatT0=    0 NMatD0=    1 NMtDS0=    0 NMtDT0=    0
 Symmetry not used in FoFCou.
 Requested convergence on RMS density matrix=1.00D-08 within 128 cycles.
 Requested convergence on MAX density matrix=1.00D-06.
 Requested convergence on             energy=1.00D-06.
 No special actions if energy rises.
 SCF Done:  E(RB3LYP) =  -534.073782962     A.U. after   14 cycles
            NFock= 14  Conv=0.44D-08     -V/T= 2.0104
 Variable Step   Value    
 -------- ---- -----------
    11       6    3.023562
 ---------------------------------------------------------------------------------------------------
                            Z-MATRIX (ANGSTROMS AND DEGREES)
   CD    Cent   Atom    N1       Length/X        N2       Alpha/Y        N3        Beta/Z          J
 ---------------------------------------------------------------------------------------------------
      1      1  C 
      2      2  C        1   1.416405(     1)
      3      3  C        2   1.401843(     2)      1  120.707(    17)
      4      4  C        3   1.387814(     3)      2  119.979(    18)      1    0.201(    32)      0
      5      5  C        4   1.399832(     4)      3  120.495(    19)      2   -0.482(    33)      0
      6      6  C        5   1.393225(     5)      4  120.358(    20)      3    0.190(    34)      0
      7      7  H        3   1.084756(     6)      2  118.270(    21)      1  179.519(    35)      0
      8      8  H        4   1.085840(     7)      3  119.562(    22)      2  179.722(    36)      0
      9      9  H        5   1.084290(     8)      4  121.250(    23)      3 -178.844(    37)      0
     10     10  C        6   1.501171(     9)      5  116.670(    24)      4 -175.432(    38)      0
     11     11  H       10   1.099244(    10)      6  117.103(    25)      5  156.547(    39)      0
     12     12  O       10   1.600000(    11)      6  121.980(    26)      5  -21.197(    40)      0
     13     13  C        1   1.472578(    12)      2  119.519(    27)      3 -178.107(    41)      0
     14     14  O       13   1.220178(    13)      1  126.195(    28)      2  163.535(    42)      0
     15     15  H       13   1.113681(    14)      1  115.908(    29)      2  -16.954(    43)      0
     16     16  O        2   1.363991(    15)      1  124.490(    30)      6  178.799(    44)      0
     17     17  H       16   0.965333(    16)      2  112.214(    31)      1   -0.873(    45)      0
 ---------------------------------------------------------------------------------------------------
                         Z-Matrix orientation:                         
 ---------------------------------------------------------------------
 Center     Atomic      Atomic             Coordinates (Angstroms)
 Number     Number       Type             X           Y           Z
 ---------------------------------------------------------------------
      1          6           0        0.000000    0.000000    0.000000
      2          6           0        0.000000    0.000000    1.416405
      3          6           0        1.205288    0.000000    2.132257
      4          6           0        2.415384    0.004207    1.452790
      5          6           0        2.444256   -0.001670    0.053268
      6          6           0        1.256849   -0.007847   -0.675499
      7          1           0        1.159177    0.008018    3.216003
      8          1           0        3.344911    0.008756    2.014044
      9          1           0        3.382535   -0.017173   -0.489941
     10          6           0        1.382332   -0.120696   -2.167154
     11          1           0        0.515109   -0.517038   -2.714123
     12          8           0        2.732297    0.263159   -2.935431
     13          6           0       -1.280730    0.042319   -0.725552
     14          8           0       -1.433175    0.326596   -1.902319
     15          1           0       -2.185439   -0.220064   -0.131464
     16          8           0       -1.123825    0.030583    2.188773
     17          1           0       -1.929967    0.066134    1.658925
 ---------------------------------------------------------------------
                    Distance matrix (angstroms):
                    1          2          3          4          5
     1  C    0.000000
     2  C    1.416405   0.000000
     3  C    2.449335   1.401843   0.000000
     4  C    2.818634   2.415662   1.387814   0.000000
     5  C    2.444837   2.798667   2.420174   1.399832   0.000000
     6  C    1.426895   2.440449   2.808240   2.423213   1.393225
     7  H    3.418542   2.140632   1.084756   2.164947   3.413857
     8  H    3.904469   3.397894   2.142905   1.085840   2.157760
     9  H    3.417877   3.882782   3.408317   2.170263   1.084290
    10  C    2.573318   3.842825   4.304747   3.766535   2.464168
    11  H    2.810539   4.194512   4.922507   4.609327   3.412574
    12  O    4.018887   5.145209   5.299290   4.407264   3.014204
    13  C    1.472578   2.496005   3.788027   4.290441   3.805787
    14  O    2.404054   3.629682   4.831766   5.115868   4.355061
    15  H    2.200421   2.687093   4.082877   4.871112   4.638523
    16  O    2.460619   1.363991   2.329999   3.615020   4.158441
    17  H    2.545816   1.946269   3.171473   4.350679   4.660103
                    6          7          8          9         10
     6  C    0.000000
     7  H    3.892760   0.000000
     8  H    3.404985   2.494423   0.000000
     9  H    2.133791   4.321803   2.504402   0.000000
    10  C    1.501171   5.389317   4.620702   2.612388   0.000000
    11  H    2.228327   5.988063   5.535323   3.663193   1.099244
    12  O    2.712505   6.354522   4.993728   2.545942   1.600000
    13  C    2.538568   4.635750   5.376157   4.669592   3.032603
    14  O    2.975428   5.746217   6.186197   5.030314   2.863091
    15  H    3.491468   4.737511   5.936357   5.583189   4.108880
    16  O    3.724666   2.503559   4.472205   5.242621   5.027704
    17  H    3.951051   3.459867   5.287130   5.731252   5.064100
                   11         12         13         14         15
    11  H    0.000000
    12  O    2.360848   0.000000
    13  C    2.737212   4.586580   0.000000
    14  O    2.273006   4.292144   1.220178   0.000000
    15  H    3.748503   5.681536   1.113681   2.000167   0.000000
    16  O    5.198498   6.417261   2.918570   4.113437   2.563854
    17  H    5.044010   6.548560   2.471398   3.605150   1.831029
                   16         17
    16  O    0.000000
    17  H    0.965333   0.000000
 Symmetry turned off by external request.
 Stoichiometry    C8H6O3
 Framework group  C1[X(C8H6O3)]
 Deg. of freedom    45
 Full point group                 C1      NOp   1
 Rotational constants (GHZ):           1.5119369           1.0069657           0.6076856
 Standard basis: 6-31++G(d,p) (6D, 7F)
   245 basis functions,   400 primitive gaussians,   245 cartesian basis functions
    39 alpha electrons       39 beta electrons
       nuclear repulsion energy       550.7973971602 Hartrees.
 NAtoms=   17 NActive=   17 NUniq=   17 SFac= 1.00D+00 NAtFMM=   60 NAOKFM=F Big=F
 Integral buffers will be    131072 words long.
 Raffenetti 2 integral format.
 Two-electron integral symmetry is turned off.
 One-electron integrals computed using PRISM.
 NBasis=   245 RedAO= T EigKep=  1.86D-06  NBF=   245
 NBsUse=   244 1.00D-06 EigRej=  5.34D-07 NBFU=   244
 Initial guess from the checkpoint file:  "C:\Users\Administrator\Desktop\dataset_dft\C8H6O3\C8H6O3.chk"
 B after Tr=     0.015944    0.002964   -0.012500
         Rot=    0.999999   -0.000874    0.001266   -0.000556 Ang=  -0.19 deg.
 ExpMin= 3.60D-02 ExpMax= 5.48D+03 ExpMxC= 8.25D+02 IAcc=3 IRadAn=         5 AccDes= 0.00D+00
 Harris functional with IExCor=  402 and IRadAn=       5 diagonalized for initial guess.
 HarFok:  IExCor=  402 AccDes= 0.00D+00 IRadAn=         5 IDoV= 1 UseB2=F ITyADJ=14
 ICtDFT=  3500011 ScaDFX=  1.000000  1.000000  1.000000  1.000000
 FoFCou: FMM=F IPFlag=           0 FMFlag=      100000 FMFlg1=           0
         NFxFlg=           0 DoJE=T BraDBF=F KetDBF=T FulRan=T
         wScrn=  0.000000 ICntrl=       500 IOpCl=  0 I1Cent=   200000004 NGrid=           0
         NMat0=    1 NMatS0=      1 NMatT0=    0 NMatD0=    1 NMtDS0=    0 NMtDT0=    0
 Symmetry not used in FoFCou.
 Requested convergence on RMS density matrix=1.00D-08 within 128 cycles.
 Requested convergence on MAX density matrix=1.00D-06.
 Requested convergence on             energy=1.00D-06.
 No special actions if energy rises.
 SCF Done:  E(RB3LYP) =  -534.039221200     A.U. after   14 cycles
            NFock= 14  Conv=0.70D-08     -V/T= 2.0106
 Variable Step   Value    
 -------- ---- -----------
    11       7    3.212534
 ---------------------------------------------------------------------------------------------------
                            Z-MATRIX (ANGSTROMS AND DEGREES)
   CD    Cent   Atom    N1       Length/X        N2       Alpha/Y        N3        Beta/Z          J
 ---------------------------------------------------------------------------------------------------
      1      1  C 
      2      2  C        1   1.416405(     1)
      3      3  C        2   1.401843(     2)      1  120.707(    17)
      4      4  C        3   1.387814(     3)      2  119.979(    18)      1    0.201(    32)      0
      5      5  C        4   1.399832(     4)      3  120.495(    19)      2   -0.482(    33)      0
      6      6  C        5   1.393225(     5)      4  120.358(    20)      3    0.190(    34)      0
      7      7  H        3   1.084756(     6)      2  118.270(    21)      1  179.519(    35)      0
      8      8  H        4   1.085840(     7)      3  119.562(    22)      2  179.722(    36)      0
      9      9  H        5   1.084290(     8)      4  121.250(    23)      3 -178.844(    37)      0
     10     10  C        6   1.501171(     9)      5  116.670(    24)      4 -175.432(    38)      0
     11     11  H       10   1.099244(    10)      6  117.103(    25)      5  156.547(    39)      0
     12     12  O       10   1.700000(    11)      6  121.980(    26)      5  -21.197(    40)      0
     13     13  C        1   1.472578(    12)      2  119.519(    27)      3 -178.107(    41)      0
     14     14  O       13   1.220178(    13)      1  126.195(    28)      2  163.535(    42)      0
     15     15  H       13   1.113681(    14)      1  115.908(    29)      2  -16.954(    43)      0
     16     16  O        2   1.363991(    15)      1  124.490(    30)      6  178.799(    44)      0
     17     17  H       16   0.965333(    16)      2  112.214(    31)      1   -0.873(    45)      0
 ---------------------------------------------------------------------------------------------------
                         Z-Matrix orientation:                         
 ---------------------------------------------------------------------
 Center     Atomic      Atomic             Coordinates (Angstroms)
 Number     Number       Type             X           Y           Z
 ---------------------------------------------------------------------
      1          6           0        0.000000    0.000000    0.000000
      2          6           0        0.000000    0.000000    1.416405
      3          6           0        1.205288    0.000000    2.132257
      4          6           0        2.415384    0.004207    1.452790
      5          6           0        2.444256   -0.001670    0.053268
      6          6           0        1.256849   -0.007847   -0.675499
      7          1           0        1.159177    0.008018    3.216003
      8          1           0        3.344911    0.008756    2.014044
      9          1           0        3.382535   -0.017173   -0.489941
     10          6           0        1.382332   -0.120696   -2.167154
     11          1           0        0.515109   -0.517038   -2.714123
     12          8           0        2.816669    0.287150   -2.983449
     13          6           0       -1.280730    0.042319   -0.725552
     14          8           0       -1.433175    0.326596   -1.902319
     15          1           0       -2.185439   -0.220064   -0.131464
     16          8           0       -1.123825    0.030583    2.188773
     17          1           0       -1.929967    0.066134    1.658925
 ---------------------------------------------------------------------
                    Distance matrix (angstroms):
                    1          2          3          4          5
     1  C    0.000000
     2  C    1.416405   0.000000
     3  C    2.449335   1.401843   0.000000
     4  C    2.818634   2.415662   1.387814   0.000000
     5  C    2.444837   2.798667   2.420174   1.399832   0.000000
     6  C    1.426895   2.440449   2.808240   2.423213   1.393225
     7  H    3.418542   2.140632   1.084756   2.164947   3.413857
     8  H    3.904469   3.397894   2.142905   1.085840   2.157760
[...]
         wScrn=  0.000000 ICntrl=       500 IOpCl=  0 I1Cent=   200000004 NGrid=           0
         NMat0=    1 NMatS0=      1 NMatT0=    0 NMatD0=    1 NMtDS0=    0 NMtDT0=    0
 Symmetry not used in FoFCou.
 Requested convergence on RMS density matrix=1.00D-08 within 128 cycles.
 Requested convergence on MAX density matrix=1.00D-06.
 Requested convergence on             energy=1.00D-06.
 No special actions if energy rises.
 SCF Done:  E(RB3LYP) =  -533.802427039     A.U. after   16 cycles
            NFock= 16  Conv=0.94D-08     -V/T= 2.0099
 Variable Step   Value    
 -------- ---- -----------
    11      19    5.480206
 ---------------------------------------------------------------------------------------------------
                            Z-MATRIX (ANGSTROMS AND DEGREES)
   CD    Cent   Atom    N1       Length/X        N2       Alpha/Y        N3        Beta/Z          J
 ---------------------------------------------------------------------------------------------------
      1      1  C 
      2      2  C        1   1.416405(     1)
      3      3  C        2   1.401843(     2)      1  120.707(    17)
      4      4  C        3   1.387814(     3)      2  119.979(    18)      1    0.201(    32)      0
      5      5  C        4   1.399832(     4)      3  120.495(    19)      2   -0.482(    33)      0
      6      6  C        5   1.393225(     5)      4  120.358(    20)      3    0.190(    34)      0
      7      7  H        3   1.084756(     6)      2  118.270(    21)      1  179.519(    35)      0
      8      8  H        4   1.085840(     7)      3  119.562(    22)      2  179.722(    36)      0
      9      9  H        5   1.084290(     8)      4  121.250(    23)      3 -178.844(    37)      0
     10     10  C        6   1.501171(     9)      5  116.670(    24)      4 -175.432(    38)      0
     11     11  H       10   1.099244(    10)      6  117.103(    25)      5  156.547(    39)      0
     12     12  O       10   2.900000(    11)      6  121.980(    26)      5  -21.197(    40)      0
     13     13  C        1   1.472578(    12)      2  119.519(    27)      3 -178.107(    41)      0
     14     14  O       13   1.220178(    13)      1  126.195(    28)      2  163.535(    42)      0
     15     15  H       13   1.113681(    14)      1  115.908(    29)      2  -16.954(    43)      0
     16     16  O        2   1.363991(    15)      1  124.490(    30)      6  178.799(    44)      0
     17     17  H       16   0.965333(    16)      2  112.214(    31)      1   -0.873(    45)      0
 ---------------------------------------------------------------------------------------------------
                         Z-Matrix orientation:                         
 ---------------------------------------------------------------------
 Center     Atomic      Atomic             Coordinates (Angstroms)
 Number     Number       Type             X           Y           Z
 ---------------------------------------------------------------------
      1          6           0        0.000000    0.000000    0.000000
      2          6           0        0.000000    0.000000    1.416405
      3          6           0        1.205288    0.000000    2.132257
      4          6           0        2.415384    0.004207    1.452790
      5          6           0        2.444256   -0.001670    0.053268
      6          6           0        1.256849   -0.007847   -0.675499
      7          1           0        1.159177    0.008018    3.216003
      8          1           0        3.344911    0.008756    2.014044
      9          1           0        3.382535   -0.017173   -0.489941
     10          6           0        1.382332   -0.120696   -2.167154
     11          1           0        0.515109   -0.517038   -2.714123
     12          8           0        3.829143    0.575041   -3.559657
     13          6           0       -1.280730    0.042319   -0.725552
     14          8           0       -1.433175    0.326596   -1.902319
     15          1           0       -2.185439   -0.220064   -0.131464
     16          8           0       -1.123825    0.030583    2.188773
     17          1           0       -1.929967    0.066134    1.658925
 ---------------------------------------------------------------------
                    Distance matrix (angstroms):
                    1          2          3          4          5
     1  C    0.000000
     2  C    1.416405   0.000000
     3  C    2.449335   1.401843   0.000000
     4  C    2.818634   2.415662   1.387814   0.000000
     5  C    2.444837   2.798667   2.420174   1.399832   0.000000
     6  C    1.426895   2.440449   2.808240   2.423213   1.393225
     7  H    3.418542   2.140632   1.084756   2.164947   3.413857
     8  H    3.904469   3.397894   2.142905   1.085840   2.157760
     9  H    3.417877   3.882782   3.408317   2.170263   1.084290
    10  C    2.573318   3.842825   4.304747   3.766535   2.464168
    11  H    2.810539   4.194512   4.922507   4.609327   3.412574
    12  O    5.259674   6.305094   6.293900   5.239197   3.911999
    13  C    1.472578   2.496005   3.788027   4.290441   3.805787
    14  O    2.404054   3.629682   4.831766   5.115868   4.355061
    15  H    2.200421   2.687093   4.082877   4.871112   4.638523
    16  O    2.460619   1.363991   2.329999   3.615020   4.158441
    17  H    2.545816   1.946269   3.171473   4.350679   4.660103
                    6          7          8          9         10
     6  C    0.000000
     7  H    3.892760   0.000000
     8  H    3.404985   2.494423   0.000000
     9  H    2.133791   4.321803   2.504402   0.000000
    10  C    1.501171   5.389317   4.620702   2.612388   0.000000
    11  H    2.228327   5.988063   5.535323   3.663193   1.099244
    12  O    3.908302   7.304780   5.623282   3.158058   2.900000
    13  C    2.538568   4.635750   5.376157   4.669592   3.032603
    14  O    2.975428   5.746217   6.186197   5.030314   2.863091
    15  H    3.491468   4.737511   5.936357   5.583189   4.108880
    16  O    3.724666   2.503559   4.472205   5.242621   5.027704
    17  H    3.951051   3.459867   5.287130   5.731252   5.064100
                   11         12         13         14         15
    11  H    0.000000
    12  O    3.590318   0.000000
    13  C    2.737212   5.867430   0.000000
    14  O    2.273006   5.522724   1.220178   0.000000
    15  H    3.748503   6.968493   1.113681   2.000167   0.000000
    16  O    5.198498   7.607416   2.918570   4.113437   2.563854
    17  H    5.044010   7.788449   2.471398   3.605150   1.831029
                   16         17
    16  O    0.000000
    17  H    0.965333   0.000000
 Symmetry turned off by external request.
 Stoichiometry    C8H6O3
 Framework group  C1[X(C8H6O3)]
 Deg. of freedom    45
 Full point group                 C1      NOp   1
 Rotational constants (GHZ):           1.4644831           0.7795680           0.5129340
 Standard basis: 6-31++G(d,p) (6D, 7F)
   245 basis functions,   400 primitive gaussians,   245 cartesian basis functions
    39 alpha electrons       39 beta electrons
       nuclear repulsion energy       529.6588147690 Hartrees.
 NAtoms=   17 NActive=   17 NUniq=   17 SFac= 1.00D+00 NAtFMM=   60 NAOKFM=F Big=F
 Integral buffers will be    131072 words long.
 Raffenetti 2 integral format.
 Two-electron integral symmetry is turned off.
 One-electron integrals computed using PRISM.
 NBasis=   245 RedAO= T EigKep=  1.86D-06  NBF=   245
 NBsUse=   244 1.00D-06 EigRej=  5.23D-07 NBFU=   244
 Initial guess from the checkpoint file:  "C:\Users\Administrator\Desktop\dataset_dft\C8H6O3\C8H6O3.chk"
 B after Tr=     0.015781    0.003085   -0.012545
         Rot=    0.999999   -0.000696    0.001072   -0.000395 Ang=  -0.15 deg.
 ExpMin= 3.60D-02 ExpMax= 5.48D+03 ExpMxC= 8.25D+02 IAcc=3 IRadAn=         5 AccDes= 0.00D+00
 Harris functional with IExCor=  402 and IRadAn=       5 diagonalized for initial guess.
 HarFok:  IExCor=  402 AccDes= 0.00D+00 IRadAn=         5 IDoV= 1 UseB2=F ITyADJ=14
 ICtDFT=  3500011 ScaDFX=  1.000000  1.000000  1.000000  1.000000
 FoFCou: FMM=F IPFlag=           0 FMFlag=      100000 FMFlg1=           0
         NFxFlg=           0 DoJE=T BraDBF=F KetDBF=T FulRan=T
         wScrn=  0.000000 ICntrl=       500 IOpCl=  0 I1Cent=   200000004 NGrid=           0
         NMat0=    1 NMatS0=      1 NMatT0=    0 NMatD0=    1 NMtDS0=    0 NMtDT0=    0
 Symmetry not used in FoFCou.
 Requested convergence on RMS density matrix=1.00D-08 within 128 cycles.
 Requested convergence on MAX density matrix=1.00D-06.
 Requested convergence on             energy=1.00D-06.
 No special actions if energy rises.
 SCF Done:  E(RB3LYP) =  -533.796316401     A.U. after   18 cycles
            NFock= 18  Conv=0.44D-08     -V/T= 2.0099
 Variable Step   Value    
 -------- ---- -----------
    11      20    5.669178
 ---------------------------------------------------------------------------------------------------
                            Z-MATRIX (ANGSTROMS AND DEGREES)
   CD    Cent   Atom    N1       Length/X        N2       Alpha/Y        N3        Beta/Z          J
 ---------------------------------------------------------------------------------------------------
      1      1  C 
      2      2  C        1   1.416405(     1)
      3      3  C        2   1.401843(     2)      1  120.707(    17)
      4      4  C        3   1.387814(     3)      2  119.979(    18)      1    0.201(    32)      0
      5      5  C        4   1.399832(     4)      3  120.495(    19)      2   -0.482(    33)      0
      6      6  C        5   1.393225(     5)      4  120.358(    20)      3    0.190(    34)      0
      7      7  H        3   1.084756(     6)      2  118.270(    21)      1  179.519(    35)      0
      8      8  H        4   1.085840(     7)      3  119.562(    22)      2  179.722(    36)      0
      9      9  H        5   1.084290(     8)      4  121.250(    23)      3 -178.844(    37)      0
     10     10  C        6   1.501171(     9)      5  116.670(    24)      4 -175.432(    38)      0
     11     11  H       10   1.099244(    10)      6  117.103(    25)      5  156.547(    39)      0
     12     12  O       10   3.000000(    11)      6  121.980(    26)      5  -21.197(    40)      0
     13     13  C        1   1.472578(    12)      2  119.519(    27)      3 -178.107(    41)      0
     14     14  O       13   1.220178(    13)      1  126.195(    28)      2  163.535(    42)      0
     15     15  H       13   1.113681(    14)      1  115.908(    29)      2  -16.954(    43)      0
     16     16  O        2   1.363991(    15)      1  124.490(    30)      6  178.799(    44)      0
     17     17  H       16   0.965333(    16)      2  112.214(    31)      1   -0.873(    45)      0
 ---------------------------------------------------------------------------------------------------
                         Z-Matrix orientation:                         
 ---------------------------------------------------------------------
 Center     Atomic      Atomic             Coordinates (Angstroms)
 Number     Number       Type             X           Y           Z
 ---------------------------------------------------------------------
      1          6           0        0.000000    0.000000    0.000000
      2          6           0        0.000000    0.000000    1.416405
      3          6           0        1.205288    0.000000    2.132257
      4          6           0        2.415384    0.004207    1.452790
      5          6           0        2.444256   -0.001670    0.053268
      6          6           0        1.256849   -0.007847   -0.675499
      7          1           0        1.159177    0.008018    3.216003
      8          1           0        3.344911    0.008756    2.014044
      9          1           0        3.382535   -0.017173   -0.489941
     10          6           0        1.382332   -0.120696   -2.167154
     11          1           0        0.515109   -0.517038   -2.714123
     12          8           0        3.913516    0.599032   -3.607674
     13          6           0       -1.280730    0.042319   -0.725552
     14          8           0       -1.433175    0.326596   -1.902319
     15          1           0       -2.185439   -0.220064   -0.131464
     16          8           0       -1.123825    0.030583    2.188773
     17          1           0       -1.929967    0.066134    1.658925
 ---------------------------------------------------------------------
                    Distance matrix (angstroms):
                    1          2          3          4          5
     1  C    0.000000
     2  C    1.416405   0.000000
     3  C    2.449335   1.401843   0.000000
     4  C    2.818634   2.415662   1.387814   0.000000
     5  C    2.444837   2.798667   2.420174   1.399832   0.000000
     6  C    1.426895   2.440449   2.808240   2.423213   1.393225
     7  H    3.418542   2.140632   1.084756   2.164947   3.413857
     8  H    3.904469   3.397894   2.142905   1.085840   2.157760
     9  H    3.417877   3.882782   3.408317   2.170263   1.084290
    10  C    2.573318   3.842825   4.304747   3.766535   2.464168
    11  H    2.810539   4.194512   4.922507   4.609327   3.412574
    12  O    5.356282   6.396548   6.374963   5.310980   3.990246
    13  C    1.472578   2.496005   3.788027   4.290441   3.805787
    14  O    2.404054   3.629682   4.831766   5.115868   4.355061
    15  H    2.200421   2.687093   4.082877   4.871112   4.638523
    16  O    2.460619   1.363991   2.329999   3.615020   4.158441
    17  H    2.545816   1.946269   3.171473   4.350679   4.660103
                    6          7          8          9         10
     6  C    0.000000
     7  H    3.892760   0.000000
     8  H    3.404985   2.494423   0.000000
     9  H    2.133791   4.321803   2.504402   0.000000
    10  C    1.501171   5.389317   4.620702   2.612388   0.000000
    11  H    2.228327   5.988063   5.535323   3.663193   1.099244
    12  O    4.002978   7.382293   5.681149   3.222097   3.000000
    13  C    2.538568   4.635750   5.376157   4.669592   3.032603
    14  O    2.975428   5.746217   6.186197   5.030314   2.863091
    15  H    3.491468   4.737511   5.936357   5.583189   4.108880
    16  O    3.724666   2.503559   4.472205   5.242621   5.027704
    17  H    3.951051   3.459867   5.287130   5.731252   5.064100
                   11         12         13         14         15
    11  H    0.000000
    12  O    3.686897   0.000000
    13  C    2.737212   5.966300   0.000000
    14  O    2.273006   5.618680   1.220178   0.000000
    15  H    3.748503   7.067687   1.113681   2.000167   0.000000
    16  O    5.198498   7.700438   2.918570   4.113437   2.563854
    17  H    5.044010   7.884627   2.471398   3.605150   1.831029
                   16         17
    16  O    0.000000
    17  H    0.965333   0.000000
 Symmetry turned off by external request.
 Stoichiometry    C8H6O3
 Framework group  C1[X(C8H6O3)]
 Deg. of freedom    45
 Full point group                 C1      NOp   1
 Rotational constants (GHZ):           1.4621239           0.7636033           0.5058476
 Standard basis: 6-31++G(d,p) (6D, 7F)
   245 basis functions,   400 primitive gaussians,   245 cartesian basis functions
    39 alpha electrons       39 beta electrons
       nuclear repulsion energy       528.5075830163 Hartrees.
 NAtoms=   17 NActive=   17 NUniq=   17 SFac= 1.00D+00 NAtFMM=   60 NAOKFM=F Big=F
 Integral buffers will be    131072 words long.
 Raffenetti 2 integral format.
 Two-electron integral symmetry is turned off.
 One-electron integrals computed using PRISM.
 NBasis=   245 RedAO= T EigKep=  1.89D-06  NBF=   245
 NBsUse=   244 1.00D-06 EigRej=  5.22D-07 NBFU=   244
 Initial guess from the checkpoint file:  "C:\Users\Administrator\Desktop\dataset_dft\C8H6O3\C8H6O3.chk"
 B after Tr=     0.015771    0.003097   -0.012541
         Rot=    0.999999   -0.000684    0.001058   -0.000385 Ang=  -0.15 deg.
 ExpMin= 3.60D-02 ExpMax= 5.48D+03 ExpMxC= 8.25D+02 IAcc=3 IRadAn=         5 AccDes= 0.00D+00
 Harris functional with IExCor=  402 and IRadAn=       5 diagonalized for initial guess.
 HarFok:  IExCor=  402 AccDes= 0.00D+00 IRadAn=         5 IDoV= 1 UseB2=F ITyADJ=14
 ICtDFT=  3500011 ScaDFX=  1.000000  1.000000  1.000000  1.000000
 FoFCou: FMM=F IPFlag=           0 FMFlag=      100000 FMFlg1=           0
         NFxFlg=           0 DoJE=T BraDBF=F KetDBF=T FulRan=T
         wScrn=  0.000000 ICntrl=       500 IOpCl=  0 I1Cent=   200000004 NGrid=           0
         NMat0=    1 NMatS0=      1 NMatT0=    0 NMatD0=    1 NMtDS0=    0 NMtDT0=    0
 Symmetry not used in FoFCou.
 Requested convergence on RMS density matrix=1.00D-08 within 128 cycles.
 Requested convergence on MAX density matrix=1.00D-06.
 Requested convergence on             energy=1.00D-06.
 No special actions if energy rises.
 SCF Done:  E(RB3LYP) =  -533.791109355     A.U. after   18 cycles
            NFock= 18  Conv=0.73D-08     -V/T= 2.0098
 Scan completed.
 
 Summary of the potential surface scan:
   N      B11         SCF    
 ----  ---------  -----------
    1     1.0000   -534.01961
    2     1.1000   -534.11161
    3     1.2000   -534.13848
    4     1.3000   -534.13090
    5     1.4000   -534.10612
    6     1.5000   -534.07378
    7     1.6000   -534.03922
    8     1.7000   -534.00527
    9     1.8000   -533.97334
   10     1.9000   -533.94410
   11     2.0000   -533.91779
   12     2.1000   -533.89443
   13     2.2000   -533.87398
   14     2.3000   -533.85633
   15     2.4000   -533.84133
   16     2.5000   -533.82876
   17     2.6000   -533.81832
   18     2.7000   -533.80966
   19     2.8000   -533.80243
   20     2.9000   -533.79632
   21     3.0000   -533.79111
 ----  ---------  -----------
  
 1|1|UNPC-BF-202112021916|Scan|RB3LYP|6-31++G(d,p)|C8H6O3|ADMINISTRATOR
 |21-Mar-2023|1||# scan b3lyp/6-31++g(d,p) nosymm||Title Card Required|
 |0,1|C|C,1,B1|C,2,B2,1,A1|C,3,B3,2,A2,1,D1,0|C,4,B4,3,A3,2,D2,0|C,5,B5
 ,4,A4,3,D3,0|H,3,B6,2,A5,1,D4,0|H,4,B7,3,A6,2,D5,0|H,5,B8,4,A7,3,D6,0|
 C,6,B9,5,A8,4,D7,0|H,10,B10,6,A9,5,D8,0|O,10,B11,6,A10,5,D9,0|C,1,B12,
 2,A11,3,D10,0|O,13,B13,1,A12,2,D11,0|H,13,B14,1,A13,2,D12,0|O,2,B15,1,
 A14,6,D13,0|H,16,B16,2,A15,1,D14,0||B1=1.41640543|B2=1.40184266|B3=1.3
 8781378|B4=1.39983165|B5=1.39322488|B6=1.08475603|B7=1.08583956|B8=1.0
 8428977|B9=1.50117117|B10=1.09924387|B11=1.,s,20,0.1|B12=1.47257773|B1
 3=1.22017785|B14=1.11368052|B15=1.36399058|B16=0.96533297|A1=120.70717
 149|A2=119.97851826|A3=120.49469346|A4=120.35813845|A5=118.26996991|A6
 =119.56241157|A7=121.25035101|A8=116.67023011|A9=117.10293634|A10=121.
 97992104|A11=119.51879521|A12=126.19501193|A13=115.90757059|A14=124.48
 955885|A15=112.21443445|D1=0.20052181|D2=-0.4816753|D3=0.18978724|D4=1
 79.51915901|D5=179.72238218|D6=-178.84449407|D7=-175.4323131|D8=156.54
 726604|D9=-21.1966001|D10=-178.10748664|D11=163.53528247|D12=-16.95409
 935|D13=178.79889123|D14=-0.8725374||Version=EM64W-G16RevA.03|HF=-534.
 0196098,-534.111607,-534.1384777,-534.1308996,-534.1061161,-534.073783
 ,-534.0392212,-534.0052665,-533.9733445,-533.9441044,-533.9177861,-533
 .8944286,-533.8739781,-533.8563299,-533.8413303,-533.82876,-533.818322
 7,-533.8096636,-533.802427,-533.7963164,-533.7911094|RMSD=5.726e-009,6
 .185e-009,5.070e-009,3.980e-009,3.507e-009,4.444e-009,7.046e-009,5.573
 e-009,7.747e-009,5.617e-009,8.689e-009,2.965e-009,3.084e-009,3.514e-00
 9,4.698e-009,9.098e-009,6.951e-009,8.721e-009,9.407e-009,4.393e-009,7.
 346e-009|PG=C01 [X(C8H6O3)]||@


 THE BEST WAY TO CONVINCE A FOOL THAT HE IS WRONG 
 IS TO LET HIM HAVE HIS OWN WAY.

                                         JOSH BILLINGS
 Job cpu time:       0 days  0 hours 19 minutes 53.0 seconds.
 Elapsed time:       0 days  0 hours 19 minutes 30.7 seconds.
 File lengths (MBytes):  RWF=     42 Int=      0 D2E=      0 Chk=      7 Scr=      1
 Normal termination of Gaussian 16 at Tue Mar 21 19:46:24 2023.
