 Entering Link 1 = I:\G16W\l1.exe PID=     16180.
  
 Copyright (c) 1988,1990,1992,1993,1995,1998,2003,2009,2016,
            Gaussian, Inc.  All Rights Reserved.
  
 This is part of the Gaussian(R) 16 program.  It is based on
 the Gaussian(R) 09 system (copyright 2009, Gaussian, Inc.),
 the Gaussian(R) 03 system (copyright 2003, Gaussian, Inc.),
 the Gaussian(R) 98 system (copyright 1998, Gaussian, Inc.),
 the Gaussian(R) 94 system (copyright 1995, Gaussian, Inc.),
 the Gaussian 92(TM) system (copyright 1992, Gaussian, Inc.),
 the Gaussian 90(TM) system (copyright 1990, Gaussian, Inc.),
 the Gaussian 88(TM) system (copyright 1988, Gaussian, Inc.),
 the Gaussian 86(TM) system (copyright 1986, Carnegie Mellon
 University), and the Gaussian 82(TM) system (copyright 1983,
 Carnegie Mellon University). Gaussian is a federally registered
 trademark of Gaussian, Inc.
  
 This software contains proprietary and confidential information,
 including trade secrets, belonging to Gaussian, Inc.
  
 This software is provided under written license and may be
 used, copied, transmitted, or stored only in accord with that
 written license.
  
 The following legend is applicable only to US Government
 contracts under FAR:
  
                    RESTRICTED RIGHTS LEGEND
  
 Use, reproduction and disclosure by the US Government is
 subject to restrictions as set forth in subparagraphs (a)
 and (c) of the Commercial Computer Software - Restricted
 Rights clause in FAR 52.227-19.
  
 Gaussian, Inc.
 340 Quinnipiac St., Bldg. 40, Wallingford CT 06492
  
  
 ---------------------------------------------------------------
 Warning -- This program may not be used in any manner that
 competes with the business of Gaussian, Inc. or will provide
 assistance to any competitor of Gaussian, Inc.  The licensee
 of this program is prohibited from giving any competitor of
 Gaussian, Inc. access to this program.  By using this program,
 the user acknowledges that Gaussian, Inc. is engaged in the
 business of creating and licensing software in the field of
 computational chemistry and represents and warrants to the
 licensee that it is not a competitor of Gaussian, Inc. and that
 it will not use this program in any manner prohibited above.
 ---------------------------------------------------------------
  

 Cite this work as:
 Gaussian 16, Revision A.03,
 M. J. Frisch, G. W. Trucks, H. B. Schlegel, G. E. Scuseria, 
 M. A. Robb, J. R. Cheeseman, G. Scalmani, V. Barone, 
 G. A. Petersson, H. Nakatsuji, X. Li, M. Caricato, A. V. Marenich, 
 J. Bloino, B. G. Janesko, R. Gomperts, B. Mennucci, H. P. Hratchian, 
 J. V. Ortiz, A. F. Izmaylov, J. L. Sonnenberg, D. Williams-Young, 
 F. Ding, F. Lipparini, F. Egidi, J. Goings, B. Peng, A. Petrone, 
 T. Henderson, D. Ranasinghe, V. G. Zakrzewski, J. Gao, N. Rega, 
 G. Zheng, W. Liang, M. Hada, M. Ehara, K. Toyota, R. Fukuda, 
 J. Hasegawa, M. Ishida, T. Nakajima, Y. Honda, O. Kitao, H. Nakai, 
 T. Vreven, K. Throssell, J. A. Montgomery, Jr., J. E. Peralta, 
 F. Ogliaro, M. J. Bearpark, J. J. Heyd, E. N. Brothers, K. N. Kudin, 
 V. N. Staroverov, T. A. Keith, R. Kobayashi, J. Normand, 
 K. Raghavachari, A. P. Rendell, J. C. Burant, S. S. Iyengar, 
 J. Tomasi, M. Cossi, J. M. Millam, M. Klene, C. Adamo, R. Cammi, 
 J. W. Ochterski, R. L. Martin, K. Morokuma, O. Farkas, 
 J. B. Foresman, and D. J. Fox, Gaussian, Inc., Wallingford CT, 2016.
 
 ******************************************
 Gaussian 16:  EM64W-G16RevA.03 17-Dec-2016
                21-Mar-2023 
 ******************************************
 %nprocshared=8
 Will use up to    8 processors via shared memory.
 %mem=150MW
 %chk=C:\Users\Administrator\Desktop\dataset_dft\C8H6O3\C8H6O3.chk
 --------------------------------
 # scan b3lyp/6-31++g(d,p) nosymm
 --------------------------------
 1/38=1,60=1,172=1/1,8;
 2/12=2,15=1,17=6,18=5,29=3,40=1/2;
 3/5=1,6=6,7=1111,11=2,25=1,30=1,74=-5/1,2,3;
 4//1;
 5/5=2,38=5/2;
 6/7=2,8=2,9=2,10=2,18=1,28=1/1;
 1/60=1/8(1);
 99/9=1/99;
 2/15=1,29=3/2;
 3/5=1,6=6,7=1111,11=2,25=1,30=1,74=-5/1,2,3;
 4/5=5,16=3,69=1/1;
 5/5=2,38=5/2;
 1/60=1/8(-4);
 99/9=1/99;
 -------------------
 Title Card Required
 -------------------
 Symbolic Z-matrix:
 Charge =  0 Multiplicity = 1
 C(PDBName=C,ResName=MOL,ResNum=1)
 C(PDBName=C,ResName=MOL,ResNum=1) 1    B1
 C(PDBName=C,ResName=MOL,ResNum=1) 2    B2       1    A1
 C(PDBName=C,ResName=MOL,ResNum=1) 3    B3       2    A2       1    D1       0
 C(PDBName=C,ResName=MOL,ResNum=1) 4    B4       3    A3       2    D2       0
 C(PDBName=C,ResName=MOL,ResNum=1) 5    B5       4    A4       3    D3       0
 H(PDBName=H,ResName=MOL,ResNum=1) 3    B6       2    A5       1    D4       0
 H(PDBName=H,ResName=MOL,ResNum=1) 4    B7       3    A6       2    D5       0
 H(PDBName=H,ResName=MOL,ResNum=1) 5    B8       4    A7       3    D6       0
 C(PDBName=C,ResName=MOL,ResNum=1) 6    B9       5    A8       4    D7       0
 H(PDBName=H,ResName=MOL,ResNum=1) 10   B10      6    A9       5    D8       0
 O(PDBName=O,ResName=MOL,ResNum=1) 10   B11      6    A10      5    D9       0
 C(PDBName=C,ResName=MOL,ResNum=1) 1    B12      2    A11      3    D10      0
 O(PDBName=O,ResName=MOL,ResNum=1) 13   B13      1    A12      2    D11      0
 H(PDBName=H,ResName=MOL,ResNum=1) 13   B14      1    A13      2    D12      0
 O(PDBName=O,ResName=MOL,ResNum=1) 2    B15      1    A14      6    D13      0
 H(PDBName=H,ResName=MOL,ResNum=1) 16   B16      2    A15      1    D14      0
       Variables:
  B1                    1.41641                  
  B2                    1.40184                  
  B3                    1.38781                  
  B4                    1.39983                  
  B5                    1.39322                  
  B6                    1.08476                  
  B7                    1.08584                  
  B8                    1.08429                  
  B9                    1.50117                  
  B10                   1.09924                  
  B11                   1.21883                  
  B12                   1.47258                  
  B13                   1.22018                  
  B14                   0.5    Scan 20    0.1    
  B15                   1.36399                  
  B16                   0.96533                  
  A1                  120.70717                  
  A2                  119.97852                  
  A3                  120.49469                  
  A4                  120.35814                  
  A5                  118.26997                  
  A6                  119.56241                  
  A7                  121.25035                  
  A8                  116.67023                  
  A9                  117.10294                  
  A10                 121.97992                  
  A11                 119.5188                   
  A12                 126.19501                  
  A13                 115.90757                  
  A14                 124.48956                  
  A15                 112.21443                  
  D1                    0.20052                  
  D2                   -0.48168                  
  D3                    0.18979                  
  D4                  179.51916                  
  D5                  179.72238                  
  D6                 -178.84449                  
  D7                 -175.43231                  
  D8                  156.54727                  
  D9                  -21.1966                   
  D10                -178.10749                  
  D11                 163.53528                  
  D12                 -16.9541                   
  D13                 178.79889                  
  D14                  -0.87254                  
 
 Center=      0.70952540     -0.00479872      0.13215543
 Residue   1 PDB Number     1_0 MOL charge    0.00000000 layers R        AvRTP=      0.00000000      0.00000000      0.00000000
 Scan the potential surface.
 Variable   Value     No. Steps Step-Size
 -------- ----------- --------- ---------
    14       0.500000      20      0.1000
 A total of     21 points will be computed.
 ---------------------------------------------------------------------------------------------------
                            Z-MATRIX (ANGSTROMS AND DEGREES)
   CD    Cent   Atom    N1       Length/X        N2       Alpha/Y        N3        Beta/Z          J
 ---------------------------------------------------------------------------------------------------
      1      1  C 
      2      2  C        1   1.416405(     1)
      3      3  C        2   1.401843(     2)      1  120.707(    17)
      4      4  C        3   1.387814(     3)      2  119.979(    18)      1    0.201(    32)      0
      5      5  C        4   1.399832(     4)      3  120.495(    19)      2   -0.482(    33)      0
      6      6  C        5   1.393225(     5)      4  120.358(    20)      3    0.190(    34)      0
      7      7  H        3   1.084756(     6)      2  118.270(    21)      1  179.519(    35)      0
      8      8  H        4   1.085840(     7)      3  119.562(    22)      2  179.722(    36)      0
      9      9  H        5   1.084290(     8)      4  121.250(    23)      3 -178.844(    37)      0
     10     10  C        6   1.501171(     9)      5  116.670(    24)      4 -175.432(    38)      0
     11     11  H       10   1.099244(    10)      6  117.103(    25)      5  156.547(    39)      0
     12     12  O       10   1.218834(    11)      6  121.980(    26)      5  -21.197(    40)      0
     13     13  C        1   1.472578(    12)      2  119.519(    27)      3 -178.107(    41)      0
     14     14  O       13   1.220178(    13)      1  126.195(    28)      2  163.535(    42)      0
     15     15  H       13   0.500000(    14)      1  115.908(    29)      2  -16.954(    43)      0
     16     16  O        2   1.363991(    15)      1  124.490(    30)      6  178.799(    44)      0
     17     17  H       16   0.965333(    16)      2  112.214(    31)      1   -0.873(    45)      0
 ---------------------------------------------------------------------------------------------------
                         Z-Matrix orientation:                         
 ---------------------------------------------------------------------
 Center     Atomic      Atomic             Coordinates (Angstroms)
 Number     Number       Type             X           Y           Z
 ---------------------------------------------------------------------
      1          6           0        0.000000    0.000000    0.000000
      2          6           0        0.000000    0.000000    1.416405
      3          6           0        1.205288    0.000000    2.132257
      4          6           0        2.415384    0.004207    1.452790
      5          6           0        2.444256   -0.001670    0.053268
      6          6           0        1.256849   -0.007847   -0.675499
      7          1           0        1.159177    0.008018    3.216003
      8          1           0        3.344911    0.008756    2.014044
      9          1           0        3.382535   -0.017173   -0.489941
     10          6           0        1.382332   -0.120696   -2.167154
     11          1           0        0.515109   -0.517038   -2.714123
     12          8           0        2.410696    0.171714   -2.752405
     13          6           0       -1.280730    0.042319   -0.725552
     14          8           0       -1.433175    0.326596   -1.902319
     15          1           0       -1.686909   -0.075481   -0.458829
     16          8           0       -1.123825    0.030583    2.188773
     17          1           0       -1.929967    0.066134    1.658925
 ---------------------------------------------------------------------
                    Distance matrix (angstroms):
                    1          2          3          4          5
     1  C    0.000000
     2  C    1.416405   0.000000
     3  C    2.449335   1.401843   0.000000
     4  C    2.818634   2.415662   1.387814   0.000000
     5  C    2.444837   2.798667   2.420174   1.399832   0.000000
     6  C    1.426895   2.440449   2.808240   2.423213   1.393225
     7  H    3.418542   2.140632   1.084756   2.164947   3.413857
     8  H    3.904469   3.397894   2.142905   1.085840   2.157760
     9  H    3.417877   3.882782   3.408317   2.170263   1.084290
    10  C    2.573318   3.842825   4.304747   3.766535   2.464168
    11  H    2.810539   4.194512   4.922507   4.609327   3.412574
    12  O    3.662878   4.818706   5.034126   4.208532   2.811226
    13  C    1.472578   2.496005   3.788027   4.290441   3.805787
    14  O    2.404054   3.629682   4.831766   5.115868   4.355061
    15  H    1.749824   2.523463   3.883842   4.526527   4.163439
    16  O    2.460619   1.363991   2.329999   3.615020   4.158441
    17  H    2.545816   1.946269   3.171473   4.350679   4.660103
                    6          7          8          9         10
     6  C    0.000000
     7  H    3.892760   0.000000
     8  H    3.404985   2.494423   0.000000
     9  H    2.133791   4.321803   2.504402   0.000000
    10  C    1.501171   5.389317   4.620702   2.612388   0.000000
    11  H    2.228327   5.988063   5.535323   3.663193   1.099244
    12  O    2.382676   6.100409   4.859871   2.469594   1.218834
    13  C    2.538568   4.635750   5.376157   4.669592   3.032603
    14  O    2.975428   5.746217   6.186197   5.030314   2.863091
    15  H    2.952496   4.648825   5.607265   5.069875   3.512927
    16  O    3.724666   2.503559   4.472205   5.242621   5.027704
    17  H    3.951051   3.459867   5.287130   5.731252   5.064100
                   11         12         13         14         15
    11  H    0.000000
    12  O    2.017199   0.000000
    13  C    2.737212   4.213253   0.000000
    14  O    2.273006   3.939794   1.220178   0.000000
    15  H    3.182798   4.702336   0.500000   1.519773   0.000000
    16  O    5.198498   6.076842   2.918570   4.113437   2.708895
    17  H    5.044010   6.189696   2.471398   3.605150   2.136356
                   16         17
    16  O    0.000000
    17  H    0.965333   0.000000
 Symmetry turned off by external request.
 Stoichiometry    C8H6O3
 Framework group  C1[X(C8H6O3)]
 Deg. of freedom    45
 Full point group                 C1      NOp   1
 Rotational constants (GHZ):           1.5445404           1.0762588           0.6371503
 Standard basis: 6-31++G(d,p) (6D, 7F)
   245 basis functions,   400 primitive gaussians,   245 cartesian basis functions
    39 alpha electrons       39 beta electrons
       nuclear repulsion energy       566.2262830808 Hartrees.
 NAtoms=   17 NActive=   17 NUniq=   17 SFac= 1.00D+00 NAtFMM=   60 NAOKFM=F Big=F
 Integral buffers will be    131072 words long.
 Raffenetti 2 integral format.
 Two-electron integral symmetry is turned off.
 One-electron integrals computed using PRISM.
 NBasis=   245 RedAO= T EigKep=  2.08D-06  NBF=   245
 NBsUse=   244 1.00D-06 EigRej=  5.28D-07 NBFU=   244
 ExpMin= 3.60D-02 ExpMax= 5.48D+03 ExpMxC= 8.25D+02 IAcc=3 IRadAn=         5 AccDes= 0.00D+00
 Harris functional with IExCor=  402 and IRadAn=       5 diagonalized for initial guess.
 HarFok:  IExCor=  402 AccDes= 0.00D+00 IRadAn=         5 IDoV= 1 UseB2=F ITyADJ=14
 ICtDFT=  3500011 ScaDFX=  1.000000  1.000000  1.000000  1.000000
 FoFCou: FMM=F IPFlag=           0 FMFlag=      100000 FMFlg1=           0
         NFxFlg=           0 DoJE=T BraDBF=F KetDBF=T FulRan=T
         wScrn=  0.000000 ICntrl=       500 IOpCl=  0 I1Cent=   200000004 NGrid=           0
         NMat0=    1 NMatS0=      1 NMatT0=    0 NMatD0=    1 NMtDS0=    0 NMtDT0=    0
 Symmetry not used in FoFCou.
 Requested convergence on RMS density matrix=1.00D-08 within 128 cycles.
 Requested convergence on MAX density matrix=1.00D-06.
 Requested convergence on             energy=1.00D-06.
 No special actions if energy rises.
 SCF Done:  E(RB3LYP) =  -533.193600893     A.U. after   16 cycles
            NFock= 16  Conv=0.79D-08     -V/T= 2.0037

 **********************************************************************

            Population analysis using the SCF density.

 **********************************************************************

 Alpha  occ. eigenvalues --  -19.23078 -19.18011 -19.16383 -10.33625 -10.30216
 Alpha  occ. eigenvalues --  -10.28795 -10.24091 -10.23735 -10.23459 -10.22829
 Alpha  occ. eigenvalues --  -10.22181  -1.10995  -1.07829  -1.05602  -0.89387
 Alpha  occ. eigenvalues --   -0.82248  -0.79369  -0.76387  -0.67531  -0.66428
 Alpha  occ. eigenvalues --   -0.61077  -0.57465  -0.53989  -0.52684  -0.48642
 Alpha  occ. eigenvalues --   -0.47974  -0.46224  -0.46020  -0.44799  -0.42847
 Alpha  occ. eigenvalues --   -0.42009  -0.40715  -0.40026  -0.39170  -0.36504
 Alpha  occ. eigenvalues --   -0.29724  -0.29055  -0.26626  -0.26424
 Alpha virt. eigenvalues --   -0.10958  -0.06593  -0.02897  -0.00931  -0.00496
 Alpha virt. eigenvalues --    0.00572   0.01527   0.02244   0.03383   0.03925
 Alpha virt. eigenvalues --    0.04346   0.05498   0.06397   0.06844   0.07686
 Alpha virt. eigenvalues --    0.08207   0.09209   0.10054   0.10710   0.11064
 Alpha virt. eigenvalues --    0.11365   0.11535   0.12057   0.12409   0.13123
 Alpha virt. eigenvalues --    0.13386   0.14361   0.14842   0.15099   0.16550
 Alpha virt. eigenvalues --    0.16826   0.16945   0.17184   0.17871   0.18337
 Alpha virt. eigenvalues --    0.19685   0.20078   0.21625   0.22565   0.22879
 Alpha virt. eigenvalues --    0.23978   0.24621   0.24848   0.25480   0.25549
 Alpha virt. eigenvalues --    0.26376   0.26764   0.26983   0.28440   0.29490
 Alpha virt. eigenvalues --    0.29715   0.30228   0.31236   0.32207   0.32330
 Alpha virt. eigenvalues --    0.32937   0.33252   0.34744   0.36280   0.37308
 Alpha virt. eigenvalues --    0.37806   0.38206   0.38792   0.40449   0.41777
 Alpha virt. eigenvalues --    0.43009   0.45550   0.47275   0.48569   0.57793
 Alpha virt. eigenvalues --    0.59465   0.63632   0.64845   0.67492   0.68011
 Alpha virt. eigenvalues --    0.70061   0.70423   0.70642   0.71908   0.73271
 Alpha virt. eigenvalues --    0.74013   0.74868   0.76233   0.78855   0.82661
 Alpha virt. eigenvalues --    0.83402   0.87815   0.88585   0.92067   0.95155
 Alpha virt. eigenvalues --    0.98729   0.99471   1.00328   1.02222   1.02923
 Alpha virt. eigenvalues --    1.04863   1.08190   1.09527   1.11616   1.14602
 Alpha virt. eigenvalues --    1.15936   1.18248   1.18810   1.19956   1.21955
 Alpha virt. eigenvalues --    1.22585   1.23577   1.24576   1.26717   1.29045
 Alpha virt. eigenvalues --    1.29858   1.31831   1.32664   1.34267   1.35848
 Alpha virt. eigenvalues --    1.35984   1.37609   1.38443   1.39508   1.41439
 Alpha virt. eigenvalues --    1.45959   1.48283   1.49602   1.51502   1.54269
 Alpha virt. eigenvalues --    1.58282   1.63420   1.68212   1.70046   1.72609
 Alpha virt. eigenvalues --    1.74167   1.75537   1.75942   1.78462   1.82350
 Alpha virt. eigenvalues --    1.85501   1.86226   1.88443   1.89263   1.90681
 Alpha virt. eigenvalues --    1.91846   1.96879   1.96904   1.99316   2.00833
 Alpha virt. eigenvalues --    2.02476   2.04536   2.10749   2.15456   2.17081
 Alpha virt. eigenvalues --    2.20059   2.23068   2.24373   2.27894   2.31134
 Alpha virt. eigenvalues --    2.33437   2.34259   2.37552   2.39760   2.42818
 Alpha virt. eigenvalues --    2.43381   2.46683   2.48585   2.49520   2.52415
 Alpha virt. eigenvalues --    2.53759   2.56039   2.59143   2.61639   2.62910
 Alpha virt. eigenvalues --    2.65022   2.67472   2.69007   2.70576   2.74495
 Alpha virt. eigenvalues --    2.78489   2.87119   2.94104   2.97979   3.03460
 Alpha virt. eigenvalues --    3.08136   3.11090   3.13395   3.20070   3.23164
 Alpha virt. eigenvalues --    3.29117   3.36128   3.41284   3.43443   3.47725
 Alpha virt. eigenvalues --    3.52374   3.80073   4.04370   4.16780   4.20416
 Alpha virt. eigenvalues --    4.25901   4.27555   4.28288   4.41909   4.45066
 Alpha virt. eigenvalues --    4.48478   4.56762   4.57456   4.86511  10.10611
          Condensed to atoms (all electrons):
               1          2          3          4          5          6
     1  C   16.604536  -2.095611  -5.014117   0.843896  -2.731805  -2.184724
     2  C   -2.095611  13.043562   1.232174   0.244480  -0.128141  -5.511274
     3  C   -5.014117   1.232174  11.624051  -0.909753  -0.419447  -0.069139
     4  C    0.843896   0.244480  -0.909753   7.470903  -0.172322  -1.688888
     5  C   -2.731805  -0.128141  -0.419447  -0.172322   8.830152   1.712987
     6  C   -2.184724  -5.511274  -0.069139  -1.688888   1.712987  14.889729
     7  H   -0.059486  -0.084424   0.520187  -0.183617   0.012793   0.096570
     8  H    0.049307   0.017782  -0.123567   0.404656  -0.030834  -0.020597
     9  H    0.127341   0.035379  -0.027064  -0.031304   0.221395   0.024406
    10  C    0.532500  -0.198932   0.527824  -0.371137  -1.174906  -0.905472
    11  H    0.171140   0.059289  -0.000593   0.025813  -0.015134  -0.354188
    12  O    0.074772   0.024972  -0.002501   0.110326  -0.025026  -0.274567
    13  C   -0.518244   1.177663  -0.533326   0.507554  -0.096049  -0.895764
    14  O    0.053107   0.137561   0.033318  -0.006851  -0.092386  -0.299027
    15  H    1.043005  -2.025331  -0.492946  -0.095161  -0.061724   0.715648
    16  O    0.402080  -0.006285  -0.729874   0.075761   0.003639   0.043680
    17  H   -0.280867   0.162325   0.173557  -0.021545  -0.004163   0.018048
               7          8          9         10         11         12
     1  C   -0.059486   0.049307   0.127341   0.532500   0.171140   0.074772
     2  C   -0.084424   0.017782   0.035379  -0.198932   0.059289   0.024972
     3  C    0.520187  -0.123567  -0.027064   0.527824  -0.000593  -0.002501
     4  C   -0.183617   0.404656  -0.031304  -0.371137   0.025813   0.110326
     5  C    0.012793  -0.030834   0.221395  -1.174906  -0.015134  -0.025026
     6  C    0.096570  -0.020597   0.024406  -0.905472  -0.354188  -0.274567
     7  H    0.600965  -0.017528  -0.002540   0.016834  -0.000092  -0.000131
     8  H   -0.017528   0.602337  -0.007129  -0.015780   0.000497   0.002032
     9  H   -0.002540  -0.007129   0.566856  -0.062191   0.005874  -0.003530
    10  C    0.016834  -0.015780  -0.062191   7.079127   0.368960   0.356817
    11  H   -0.000092   0.000497   0.005874   0.368960   0.674796  -0.059992
    12  O   -0.000131   0.002032  -0.003530   0.356817  -0.059992   8.127112
    13  C   -0.026750   0.011560  -0.001492  -0.623993   0.012601   0.027019
    14  O    0.000380  -0.000172  -0.000740   0.060624  -0.024572  -0.001052
    15  H    0.003116  -0.001263   0.000088   0.263857  -0.029064  -0.004330
    16  O   -0.039076  -0.000063   0.000582   0.003062  -0.000808  -0.000012
    17  H    0.002907  -0.000295  -0.000062   0.006551  -0.000224  -0.000076
              13         14         15         16         17
     1  C   -0.518244   0.053107   1.043005   0.402080  -0.280867
     2  C    1.177663   0.137561  -2.025331  -0.006285   0.162325
     3  C   -0.533326   0.033318  -0.492946  -0.729874   0.173557
     4  C    0.507554  -0.006851  -0.095161   0.075761  -0.021545
     5  C   -0.096049  -0.092386  -0.061724   0.003639  -0.004163
     6  C   -0.895764  -0.299027   0.715648   0.043680   0.018048
     7  H   -0.026750   0.000380   0.003116  -0.039076   0.002907
     8  H    0.011560  -0.000172  -0.001263  -0.000063  -0.000295
     9  H   -0.001492  -0.000740   0.000088   0.000582  -0.000062
    10  C   -0.623993   0.060624   0.263857   0.003062   0.006551
    11  H    0.012601  -0.024572  -0.029064  -0.000808  -0.000224
    12  O    0.027019  -0.001052  -0.004330  -0.000012  -0.000076
    13  C    7.320087   0.532713  -1.828793   0.045248  -0.020732
    14  O    0.532713   8.153528  -0.161827   0.000001   0.002882
    15  H   -1.828793  -0.161827   4.140767   0.116543  -0.013855
    16  O    0.045248   0.000001   0.116543   8.404793   0.175924
    17  H   -0.020732   0.002882  -0.013855   0.175924   0.432042
 Mulliken charges:
               1
     1  C   -1.016832
     2  C   -0.085188
     3  C    0.211217
     4  C   -0.202808
     5  C    0.170971
     6  C    0.702572
     7  H    0.159893
     8  H    0.129057
     9  H    0.154130
    10  C    0.136255
    11  H    0.165696
    12  O   -0.351832
    13  C    0.910698
    14  O   -0.387488
    15  H   -0.568730
    16  O   -0.495194
    17  H    0.367583
 Sum of Mulliken charges =   0.00000
 Mulliken charges with hydrogens summed into heavy atoms:
               1
     1  C   -1.016832
     2  C   -0.085188
     3  C    0.371109
     4  C   -0.073752
     5  C    0.325102
     6  C    0.702572
    10  C    0.301951
    12  O   -0.351832
    13  C    0.341968
    14  O   -0.387488
    16  O   -0.127610
 Electronic spatial extent (au):  <R**2>=           1771.3435
 Charge=              0.0000 electrons
 Dipole moment (field-independent basis, Debye):
    X=             -1.1323    Y=             -1.0865    Z=              4.5220  Tot=              4.7866
 Quadrupole moment (field-independent basis, Debye-Ang):
   XX=            -60.7498   YY=            -63.9360   ZZ=            -74.3679
   XY=             -0.4925   XZ=              6.5004   YZ=              3.1990
 Traceless Quadrupole moment (field-independent basis, Debye-Ang):
   XX=              5.6014   YY=              2.4153   ZZ=             -8.0167
   XY=             -0.4925   XZ=              6.5004   YZ=              3.1990
 Octapole moment (field-independent basis, Debye-Ang**2):
  XXX=           -133.6614  YYY=             -6.2364  ZZZ=             47.9297  XYY=            -46.4549
  XXY=             -5.9668  XXZ=             48.3282  XZZ=            -47.2561  YZZ=             -9.2145
  YYZ=             -0.0605  XYZ=              1.0902
 Hexadecapole moment (field-independent basis, Debye-Ang**3):
 XXXX=          -1005.9872 YYYY=            -74.6497 ZZZZ=          -1245.2180 XXXY=             -1.0527
 XXXZ=            105.5817 YYYX=              5.5915 YYYZ=             10.4059 ZZZX=            149.7610
 ZZZY=             27.5647 XXYY=           -198.4320 XXZZ=           -440.9386 YYZZ=           -209.7007
 XXYZ=             15.3103 YYXZ=             10.3195 ZZXY=             -2.2408
 N-N= 5.662262830808D+02 E-N=-2.377162968168D+03  KE= 5.312424352575D+02
 Variable Step   Value    
 -------- ---- -----------
    14       1    1.133836
 ---------------------------------------------------------------------------------------------------
                            Z-MATRIX (ANGSTROMS AND DEGREES)
   CD    Cent   Atom    N1       Length/X        N2       Alpha/Y        N3        Beta/Z          J
 ---------------------------------------------------------------------------------------------------
      1      1  C 
      2      2  C        1   1.416405(     1)
      3      3  C        2   1.401843(     2)      1  120.707(    17)
      4      4  C        3   1.387814(     3)      2  119.979(    18)      1    0.201(    32)      0
      5      5  C        4   1.399832(     4)      3  120.495(    19)      2   -0.482(    33)      0
      6      6  C        5   1.393225(     5)      4  120.358(    20)      3    0.190(    34)      0
      7      7  H        3   1.084756(     6)      2  118.270(    21)      1  179.519(    35)      0
      8      8  H        4   1.085840(     7)      3  119.562(    22)      2  179.722(    36)      0
      9      9  H        5   1.084290(     8)      4  121.250(    23)      3 -178.844(    37)      0
     10     10  C        6   1.501171(     9)      5  116.670(    24)      4 -175.432(    38)      0
     11     11  H       10   1.099244(    10)      6  117.103(    25)      5  156.547(    39)      0
     12     12  O       10   1.218834(    11)      6  121.980(    26)      5  -21.197(    40)      0
     13     13  C        1   1.472578(    12)      2  119.519(    27)      3 -178.107(    41)      0
     14     14  O       13   1.220178(    13)      1  126.195(    28)      2  163.535(    42)      0
     15     15  H       13   0.600000(    14)      1  115.908(    29)      2  -16.954(    43)      0
     16     16  O        2   1.363991(    15)      1  124.490(    30)      6  178.799(    44)      0
     17     17  H       16   0.965333(    16)      2  112.214(    31)      1   -0.873(    45)      0
 ---------------------------------------------------------------------------------------------------
                         Z-Matrix orientation:                         
 ---------------------------------------------------------------------
 Center     Atomic      Atomic             Coordinates (Angstroms)
 Number     Number       Type             X           Y           Z
 ---------------------------------------------------------------------
      1          6           0        0.000000    0.000000    0.000000
      2          6           0        0.000000    0.000000    1.416405
      3          6           0        1.205288    0.000000    2.132257
      4          6           0        2.415384    0.004207    1.452790
      5          6           0        2.444256   -0.001670    0.053268
      6          6           0        1.256849   -0.007847   -0.675499
      7          1           0        1.159177    0.008018    3.216003
      8          1           0        3.344911    0.008756    2.014044
      9          1           0        3.382535   -0.017173   -0.489941
     10          6           0        1.382332   -0.120696   -2.167154
     11          1           0        0.515109   -0.517038   -2.714123
     12          8           0        2.410696    0.171714   -2.752405
     13          6           0       -1.280730    0.042319   -0.725552
     14          8           0       -1.433175    0.326596   -1.902319
     15          1           0       -1.768145   -0.099041   -0.405485
     16          8           0       -1.123825    0.030583    2.188773
     17          1           0       -1.929967    0.066134    1.658925
 ---------------------------------------------------------------------
                    Distance matrix (angstroms):
                    1          2          3          4          5
     1  C    0.000000
     2  C    1.416405   0.000000
     3  C    2.449335   1.401843   0.000000
     4  C    2.818634   2.415662   1.387814   0.000000
     5  C    2.444837   2.798667   2.420174   1.399832   0.000000
     6  C    1.426895   2.440449   2.808240   2.423213   1.393225
     7  H    3.418542   2.140632   1.084756   2.164947   3.413857
     8  H    3.904469   3.397894   2.142905   1.085840   2.157760
     9  H    3.417877   3.882782   3.408317   2.170263   1.084290
    10  C    2.573318   3.842825   4.304747   3.766535   2.464168
    11  H    2.810539   4.194512   4.922507   4.609327   3.412574
    12  O    3.662878   4.818706   5.034126   4.208532   2.811226
    13  C    1.472578   2.496005   3.788027   4.290441   3.805787
    14  O    2.404054   3.629682   4.831766   5.115868   4.355061
    15  H    1.816746   2.540754   3.910403   4.578839   4.238427
    16  O    2.460619   1.363991   2.329999   3.615020   4.158441
    17  H    2.545816   1.946269   3.171473   4.350679   4.660103
                    6          7          8          9         10
     6  C    0.000000
     7  H    3.892760   0.000000
     8  H    3.404985   2.494423   0.000000
     9  H    2.133791   4.321803   2.504402   0.000000
    10  C    1.501171   5.389317   4.620702   2.612388   0.000000
    11  H    2.228327   5.988063   5.535323   3.663193   1.099244
    12  O    2.382676   6.100409   4.859871   2.469594   1.218834
    13  C    2.538568   4.635750   5.376157   4.669592   3.032603
    14  O    2.975428   5.746217   6.186197   5.030314   2.863091
    15  H    3.038390   4.657880   5.657657   5.152023   3.609633
    16  O    3.724666   2.503559   4.472205   5.242621   5.027704
    17  H    3.951051   3.459867   5.287130   5.731252   5.064100
                   11         12         13         14         15
    11  H    0.000000
    12  O    2.017199   0.000000
    13  C    2.737212   4.213253   0.000000
    14  O    2.273006   3.939794   1.220178   0.000000
    15  H    3.273802   4.800423   0.600000   1.591818   0.000000
    16  O    5.198498   6.076842   2.918570   4.113437   2.676215
    17  H    5.044010   6.189696   2.471398   3.605150   2.077320
                   16         17
    16  O    0.000000
    17  H    0.965333   0.000000
 Symmetry turned off by external request.
 Stoichiometry    C8H6O3
 Framework group  C1[X(C8H6O3)]
 Deg. of freedom    45
 Full point group                 C1      NOp   1
 Rotational constants (GHZ):           1.5432458           1.0760489           0.6368729
 Standard basis: 6-31++G(d,p) (6D, 7F)
   245 basis functions,   400 primitive gaussians,   245 cartesian basis functions
    39 alpha electrons       39 beta electrons
       nuclear repulsion energy       564.8851600421 Hartrees.
 NAtoms=   17 NActive=   17 NUniq=   17 SFac= 1.00D+00 NAtFMM=   60 NAOKFM=F Big=F
 Integral buffers will be    131072 words long.
 Raffenetti 2 integral format.
 Two-electron integral symmetry is turned off.
 One-electron integrals computed using PRISM.
 NBasis=   245 RedAO= T EigKep=  2.07D-06  NBF=   245
 NBsUse=   244 1.00D-06 EigRej=  5.28D-07 NBFU=   244
 Initial guess from the checkpoint file:  "C:\Users\Administrator\Desktop\dataset_dft\C8H6O3\C8H6O3.chk"
 B after Tr=    -0.001883   -0.000837    0.001717
         Rot=    1.000000    0.000045   -0.000179   -0.000121 Ang=   0.03 deg.
 ExpMin= 3.60D-02 ExpMax= 5.48D+03 ExpMxC= 8.25D+02 IAcc=3 IRadAn=         5 AccDes= 0.00D+00
 Harris functional with IExCor=  402 and IRadAn=       5 diagonalized for initial guess.
 HarFok:  IExCor=  402 AccDes= 0.00D+00 IRadAn=         5 IDoV= 1 UseB2=F ITyADJ=14
 ICtDFT=  3500011 ScaDFX=  1.000000  1.000000  1.000000  1.000000
 FoFCou: FMM=F IPFlag=           0 FMFlag=      100000 FMFlg1=           0
         NFxFlg=           0 DoJE=T BraDBF=F KetDBF=T FulRan=T
         wScrn=  0.000000 ICntrl=       500 IOpCl=  0 I1Cent=   200000004 NGrid=           0
         NMat0=    1 NMatS0=      1 NMatT0=    0 NMatD0=    1 NMtDS0=    0 NMtDT0=    0
 Symmetry not used in FoFCou.
 Requested convergence on RMS density matrix=1.00D-08 within 128 cycles.
 Requested convergence on MAX density matrix=1.00D-06.
 Requested convergence on             energy=1.00D-06.
 No special actions if energy rises.
 SCF Done:  E(RB3LYP) =  -533.654418119     A.U. after   13 cycles
            NFock= 13  Conv=0.64D-08     -V/T= 2.0056
 Variable Step   Value    
 -------- ---- -----------
    14       2    1.322808
 ---------------------------------------------------------------------------------------------------
                            Z-MATRIX (ANGSTROMS AND DEGREES)
   CD    Cent   Atom    N1       Length/X        N2       Alpha/Y        N3        Beta/Z          J
 ---------------------------------------------------------------------------------------------------
      1      1  C 
      2      2  C        1   1.416405(     1)
      3      3  C        2   1.401843(     2)      1  120.707(    17)
      4      4  C        3   1.387814(     3)      2  119.979(    18)      1    0.201(    32)      0
      5      5  C        4   1.399832(     4)      3  120.495(    19)      2   -0.482(    33)      0
      6      6  C        5   1.393225(     5)      4  120.358(    20)      3    0.190(    34)      0
      7      7  H        3   1.084756(     6)      2  118.270(    21)      1  179.519(    35)      0
      8      8  H        4   1.085840(     7)      3  119.562(    22)      2  179.722(    36)      0
      9      9  H        5   1.084290(     8)      4  121.250(    23)      3 -178.844(    37)      0
     10     10  C        6   1.501171(     9)      5  116.670(    24)      4 -175.432(    38)      0
     11     11  H       10   1.099244(    10)      6  117.103(    25)      5  156.547(    39)      0
     12     12  O       10   1.218834(    11)      6  121.980(    26)      5  -21.197(    40)      0
     13     13  C        1   1.472578(    12)      2  119.519(    27)      3 -178.107(    41)      0
     14     14  O       13   1.220178(    13)      1  126.195(    28)      2  163.535(    42)      0
     15     15  H       13   0.700000(    14)      1  115.908(    29)      2  -16.954(    43)      0
     16     16  O        2   1.363991(    15)      1  124.490(    30)      6  178.799(    44)      0
     17     17  H       16   0.965333(    16)      2  112.214(    31)      1   -0.873(    45)      0
 ---------------------------------------------------------------------------------------------------
                         Z-Matrix orientation:                         
 ---------------------------------------------------------------------
 Center     Atomic      Atomic             Coordinates (Angstroms)
 Number     Number       Type             X           Y           Z
 ---------------------------------------------------------------------
      1          6           0        0.000000    0.000000    0.000000
      2          6           0        0.000000    0.000000    1.416405
      3          6           0        1.205288    0.000000    2.132257
      4          6           0        2.415384    0.004207    1.452790
      5          6           0        2.444256   -0.001670    0.053268
      6          6           0        1.256849   -0.007847   -0.675499
      7          1           0        1.159177    0.008018    3.216003
      8          1           0        3.344911    0.008756    2.014044
      9          1           0        3.382535   -0.017173   -0.489941
     10          6           0        1.382332   -0.120696   -2.167154
     11          1           0        0.515109   -0.517038   -2.714123
     12          8           0        2.410696    0.171714   -2.752405
     13          6           0       -1.280730    0.042319   -0.725552
     14          8           0       -1.433175    0.326596   -1.902319
     15          1           0       -1.849381   -0.122601   -0.352140
     16          8           0       -1.123825    0.030583    2.188773
     17          1           0       -1.929967    0.066134    1.658925
 ---------------------------------------------------------------------
                    Distance matrix (angstroms):
                    1          2          3          4          5
     1  C    0.000000
     2  C    1.416405   0.000000
     3  C    2.449335   1.401843   0.000000
     4  C    2.818634   2.415662   1.387814   0.000000
     5  C    2.444837   2.798667   2.420174   1.399832   0.000000
     6  C    1.426895   2.440449   2.808240   2.423213   1.393225
     7  H    3.418542   2.140632   1.084756   2.164947   3.413857
     8  H    3.904469   3.397894   2.142905   1.085840   2.157760
     9  H    3.417877   3.882782   3.408317   2.170263   1.084290
    10  C    2.573318   3.842825   4.304747   3.766535   2.464168
    11  H    2.810539   4.194512   4.922507   4.609327   3.412574
    12  O    3.662878   4.818706   5.034126   4.208532   2.811226
    13  C    1.472578   2.496005   3.788027   4.290441   3.805787
    14  O    2.404054   3.629682   4.831766   5.115868   4.355061
    15  H    1.886596   2.561834   3.939323   4.632718   4.314430
    16  O    2.460619   1.363991   2.329999   3.615020   4.158441
    17  H    2.545816   1.946269   3.171473   4.350679   4.660103
                    6          7          8          9         10
     6  C    0.000000
     7  H    3.892760   0.000000
     8  H    3.404985   2.494423   0.000000
     9  H    2.133791   4.321803   2.504402   0.000000
    10  C    1.501171   5.389317   4.620702   2.612388   0.000000
    11  H    2.228327   5.988063   5.535323   3.663193   1.099244
    12  O    2.382676   6.100409   4.859871   2.469594   1.218834
    13  C    2.538568   4.635750   5.376157   4.669592   3.032603
    14  O    2.975428   5.746217   6.186197   5.030314   2.863091
    15  H    3.125123   4.669061   5.709357   5.234793   3.706514
    16  O    3.724666   2.503559   4.472205   5.242621   5.027704
    17  H    3.951051   3.459867   5.287130   5.731252   5.064100
                   11         12         13         14         15
    11  H    0.000000
    12  O    2.017199   0.000000
    13  C    2.737212   4.213253   0.000000
    14  O    2.273006   3.939794   1.220178   0.000000
    15  H    3.365317   4.898587   0.700000   1.666752   0.000000
    16  O    5.198498   6.076842   2.918570   4.113437   2.646911
    17  H    5.044010   6.189696   2.471398   3.605150   2.021509
                   16         17
    16  O    0.000000
    17  H    0.965333   0.000000
 Symmetry turned off by external request.
 Stoichiometry    C8H6O3
 Framework group  C1[X(C8H6O3)]
 Deg. of freedom    45
 Full point group                 C1      NOp   1
 Rotational constants (GHZ):           1.5419202           1.0758067           0.6365807
 Standard basis: 6-31++G(d,p) (6D, 7F)
   245 basis functions,   400 primitive gaussians,   245 cartesian basis functions
    39 alpha electrons       39 beta electrons
       nuclear repulsion energy       563.8551586296 Hartrees.
 NAtoms=   17 NActive=   17 NUniq=   17 SFac= 1.00D+00 NAtFMM=   60 NAOKFM=F Big=F
 Integral buffers will be    131072 words long.
 Raffenetti 2 integral format.
 Two-electron integral symmetry is turned off.
 One-electron integrals computed using PRISM.
 NBasis=   245 RedAO= T EigKep=  2.07D-06  NBF=   245
 NBsUse=   244 1.00D-06 EigRej=  5.29D-07 NBFU=   244
 Initial guess from the checkpoint file:  "C:\Users\Administrator\Desktop\dataset_dft\C8H6O3\C8H6O3.chk"
 B after Tr=    -0.001884   -0.000836    0.001716
         Rot=    1.000000    0.000045   -0.000179   -0.000121 Ang=   0.03 deg.
 ExpMin= 3.60D-02 ExpMax= 5.48D+03 ExpMxC= 8.25D+02 IAcc=3 IRadAn=         5 AccDes= 0.00D+00
 Harris functional with IExCor=  402 and IRadAn=       5 diagonalized for initial guess.
 HarFok:  IExCor=  402 AccDes= 0.00D+00 IRadAn=         5 IDoV= 1 UseB2=F ITyADJ=14
 ICtDFT=  3500011 ScaDFX=  1.000000  1.000000  1.000000  1.000000
 FoFCou: FMM=F IPFlag=           0 FMFlag=      100000 FMFlg1=           0
         NFxFlg=           0 DoJE=T BraDBF=F KetDBF=T FulRan=T
         wScrn=  0.000000 ICntrl=       500 IOpCl=  0 I1Cent=   200000004 NGrid=           0
         NMat0=    1 NMatS0=      1 NMatT0=    0 NMatD0=    1 NMtDS0=    0 NMtDT0=    0
 Symmetry not used in FoFCou.
 Requested convergence on RMS density matrix=1.00D-08 within 128 cycles.
 Requested convergence on MAX density matrix=1.00D-06.
 Requested convergence on             energy=1.00D-06.
 No special actions if energy rises.
 SCF Done:  E(RB3LYP) =  -533.902370719     A.U. after   13 cycles
            NFock= 13  Conv=0.55D-08     -V/T= 2.0070
 Variable Step   Value    
 -------- ---- -----------
    14       3    1.511781
 ---------------------------------------------------------------------------------------------------
                            Z-MATRIX (ANGSTROMS AND DEGREES)
   CD    Cent   Atom    N1       Length/X        N2       Alpha/Y        N3        Beta/Z          J
 ---------------------------------------------------------------------------------------------------
      1      1  C 
      2      2  C        1   1.416405(     1)
      3      3  C        2   1.401843(     2)      1  120.707(    17)
      4      4  C        3   1.387814(     3)      2  119.979(    18)      1    0.201(    32)      0
      5      5  C        4   1.399832(     4)      3  120.495(    19)      2   -0.482(    33)      0
      6      6  C        5   1.393225(     5)      4  120.358(    20)      3    0.190(    34)      0
      7      7  H        3   1.084756(     6)      2  118.270(    21)      1  179.519(    35)      0
      8      8  H        4   1.085840(     7)      3  119.562(    22)      2  179.722(    36)      0
      9      9  H        5   1.084290(     8)      4  121.250(    23)      3 -178.844(    37)      0
     10     10  C        6   1.501171(     9)      5  116.670(    24)      4 -175.432(    38)      0
     11     11  H       10   1.099244(    10)      6  117.103(    25)      5  156.547(    39)      0
     12     12  O       10   1.218834(    11)      6  121.980(    26)      5  -21.197(    40)      0
     13     13  C        1   1.472578(    12)      2  119.519(    27)      3 -178.107(    41)      0
     14     14  O       13   1.220178(    13)      1  126.195(    28)      2  163.535(    42)      0
     15     15  H       13   0.800000(    14)      1  115.908(    29)      2  -16.954(    43)      0
     16     16  O        2   1.363991(    15)      1  124.490(    30)      6  178.799(    44)      0
     17     17  H       16   0.965333(    16)      2  112.214(    31)      1   -0.873(    45)      0
 ---------------------------------------------------------------------------------------------------
                         Z-Matrix orientation:                         
 ---------------------------------------------------------------------
 Center     Atomic      Atomic             Coordinates (Angstroms)
 Number     Number       Type             X           Y           Z
 ---------------------------------------------------------------------
      1          6           0        0.000000    0.000000    0.000000
      2          6           0        0.000000    0.000000    1.416405
      3          6           0        1.205288    0.000000    2.132257
      4          6           0        2.415384    0.004207    1.452790
      5          6           0        2.444256   -0.001670    0.053268
      6          6           0        1.256849   -0.007847   -0.675499
      7          1           0        1.159177    0.008018    3.216003
      8          1           0        3.344911    0.008756    2.014044
      9          1           0        3.382535   -0.017173   -0.489941
     10          6           0        1.382332   -0.120696   -2.167154
     11          1           0        0.515109   -0.517038   -2.714123
     12          8           0        2.410696    0.171714   -2.752405
     13          6           0       -1.280730    0.042319   -0.725552
     14          8           0       -1.433175    0.326596   -1.902319
     15          1           0       -1.930617   -0.146161   -0.298796
     16          8           0       -1.123825    0.030583    2.188773
     17          1           0       -1.929967    0.066134    1.658925
 ---------------------------------------------------------------------
                    Distance matrix (angstroms):
                    1          2          3          4          5
     1  C    0.000000
     2  C    1.416405   0.000000
     3  C    2.449335   1.401843   0.000000
     4  C    2.818634   2.415662   1.387814   0.000000
     5  C    2.444837   2.798667   2.420174   1.399832   0.000000
     6  C    1.426895   2.440449   2.808240   2.423213   1.393225
     7  H    3.418542   2.140632   1.084756   2.164947   3.413857
     8  H    3.904469   3.397894   2.142905   1.085840   2.157760
     9  H    3.417877   3.882782   3.408317   2.170263   1.084290
    10  C    2.573318   3.842825   4.304747   3.766535   2.464168
    11  H    2.810539   4.194512   4.922507   4.609327   3.412574
    12  O    3.662878   4.818706   5.034126   4.208532   2.811226
    13  C    1.472578   2.496005   3.788027   4.290441   3.805787
    14  O    2.404054   3.629682   4.831766   5.115868   4.355061
    15  H    1.959062   2.586612   3.970552   4.688112   4.391394
    16  O    2.460619   1.363991   2.329999   3.615020   4.158441
    17  H    2.545816   1.946269   3.171473   4.350679   4.660103
                    6          7          8          9         10
     6  C    0.000000
     7  H    3.892760   0.000000
     8  H    3.404985   2.494423   0.000000
     9  H    2.133791   4.321803   2.504402   0.000000
    10  C    1.501171   5.389317   4.620702   2.612388   0.000000
    11  H    2.228327   5.988063   5.535323   3.663193   1.099244
    12  O    2.382676   6.100409   4.859871   2.469594   1.218834
    13  C    2.538568   4.635750   5.376157   4.669592   3.032603
    14  O    2.975428   5.746217   6.186197   5.030314   2.863091
    15  H    3.212627   4.682350   5.762328   5.318154   3.803556
    16  O    3.724666   2.503559   4.472205   5.242621   5.027704
    17  H    3.951051   3.459867   5.287130   5.731252   5.064100
                   11         12         13         14         15
    11  H    0.000000
    12  O    2.017199   0.000000
    13  C    2.737212   4.213253   0.000000
    14  O    2.273006   3.939794   1.220178   0.000000
    15  H    3.457301   4.996823   0.800000   1.744201   0.000000
    16  O    5.198498   6.076842   2.918570   4.113437   2.621097
    17  H    5.044010   6.189696   2.471398   3.605150   1.969198
                   16         17
    16  O    0.000000
    17  H    0.965333   0.000000
 Symmetry turned off by external request.
 Stoichiometry    C8H6O3
 Framework group  C1[X(C8H6O3)]
 Deg. of freedom    45
 Full point group                 C1      NOp   1
 Rotational constants (GHZ):           1.5405641           1.0755322           0.6362736
 Standard basis: 6-31++G(d,p) (6D, 7F)
   245 basis functions,   400 primitive gaussians,   245 cartesian basis functions
    39 alpha electrons       39 beta electrons
       nuclear repulsion energy       563.0231857650 Hartrees.
 NAtoms=   17 NActive=   17 NUniq=   17 SFac= 1.00D+00 NAtFMM=   60 NAOKFM=F Big=F
 Integral buffers will be    131072 words long.
 Raffenetti 2 integral format.
 Two-electron integral symmetry is turned off.
 One-electron integrals computed using PRISM.
 NBasis=   245 RedAO= T EigKep=  2.06D-06  NBF=   245
 NBsUse=   244 1.00D-06 EigRej=  5.30D-07 NBFU=   244
 Initial guess from the checkpoint file:  "C:\Users\Administrator\Desktop\dataset_dft\C8H6O3\C8H6O3.chk"
 B after Tr=    -0.001885   -0.000835    0.001715
         Rot=    1.000000    0.000045   -0.000179   -0.000121 Ang=   0.03 deg.
 ExpMin= 3.60D-02 ExpMax= 5.48D+03 ExpMxC= 8.25D+02 IAcc=3 IRadAn=         5 AccDes= 0.00D+00
 Harris functional with IExCor=  402 and IRadAn=       5 diagonalized for initial guess.
 HarFok:  IExCor=  402 AccDes= 0.00D+00 IRadAn=         5 IDoV= 1 UseB2=F ITyADJ=14
 ICtDFT=  3500011 ScaDFX=  1.000000  1.000000  1.000000  1.000000
 FoFCou: FMM=F IPFlag=           0 FMFlag=      100000 FMFlg1=           0
         NFxFlg=           0 DoJE=T BraDBF=F KetDBF=T FulRan=T
         wScrn=  0.000000 ICntrl=       500 IOpCl=  0 I1Cent=   200000004 NGrid=           0
         NMat0=    1 NMatS0=      1 NMatT0=    0 NMatD0=    1 NMtDS0=    0 NMtDT0=    0
 Symmetry not used in FoFCou.
 Requested convergence on RMS density matrix=1.00D-08 within 128 cycles.
 Requested convergence on MAX density matrix=1.00D-06.
 Requested convergence on             energy=1.00D-06.
 No special actions if energy rises.
 SCF Done:  E(RB3LYP) =  -534.034169947     A.U. after   13 cycles
            NFock= 13  Conv=0.53D-08     -V/T= 2.0079
 Variable Step   Value    
 -------- ---- -----------
    14       4    1.700754
 ---------------------------------------------------------------------------------------------------
                            Z-MATRIX (ANGSTROMS AND DEGREES)
   CD    Cent   Atom    N1       Length/X        N2       Alpha/Y        N3        Beta/Z          J
 ---------------------------------------------------------------------------------------------------
      1      1  C 
      2      2  C        1   1.416405(     1)
      3      3  C        2   1.401843(     2)      1  120.707(    17)
      4      4  C        3   1.387814(     3)      2  119.979(    18)      1    0.201(    32)      0
      5      5  C        4   1.399832(     4)      3  120.495(    19)      2   -0.482(    33)      0
      6      6  C        5   1.393225(     5)      4  120.358(    20)      3    0.190(    34)      0
      7      7  H        3   1.084756(     6)      2  118.270(    21)      1  179.519(    35)      0
      8      8  H        4   1.085840(     7)      3  119.562(    22)      2  179.722(    36)      0
      9      9  H        5   1.084290(     8)      4  121.250(    23)      3 -178.844(    37)      0
     10     10  C        6   1.501171(     9)      5  116.670(    24)      4 -175.432(    38)      0
     11     11  H       10   1.099244(    10)      6  117.103(    25)      5  156.547(    39)      0
     12     12  O       10   1.218834(    11)      6  121.980(    26)      5  -21.197(    40)      0
     13     13  C        1   1.472578(    12)      2  119.519(    27)      3 -178.107(    41)      0
     14     14  O       13   1.220178(    13)      1  126.195(    28)      2  163.535(    42)      0
     15     15  H       13   0.900000(    14)      1  115.908(    29)      2  -16.954(    43)      0
     16     16  O        2   1.363991(    15)      1  124.490(    30)      6  178.799(    44)      0
     17     17  H       16   0.965333(    16)      2  112.214(    31)      1   -0.873(    45)      0
 ---------------------------------------------------------------------------------------------------
                         Z-Matrix orientation:                         
 ---------------------------------------------------------------------
 Center     Atomic      Atomic             Coordinates (Angstroms)
 Number     Number       Type             X           Y           Z
 ---------------------------------------------------------------------
      1          6           0        0.000000    0.000000    0.000000
      2          6           0        0.000000    0.000000    1.416405
      3          6           0        1.205288    0.000000    2.132257
      4          6           0        2.415384    0.004207    1.452790
      5          6           0        2.444256   -0.001670    0.053268
      6          6           0        1.256849   -0.007847   -0.675499
      7          1           0        1.159177    0.008018    3.216003
      8          1           0        3.344911    0.008756    2.014044
      9          1           0        3.382535   -0.017173   -0.489941
     10          6           0        1.382332   -0.120696   -2.167154
     11          1           0        0.515109   -0.517038   -2.714123
     12          8           0        2.410696    0.171714   -2.752405
     13          6           0       -1.280730    0.042319   -0.725552
     14          8           0       -1.433175    0.326596   -1.902319
     15          1           0       -2.011853   -0.169721   -0.245451
     16          8           0       -1.123825    0.030583    2.188773
     17          1           0       -1.929967    0.066134    1.658925
 ---------------------------------------------------------------------
                    Distance matrix (angstroms):
                    1          2          3          4          5
     1  C    0.000000
     2  C    1.416405   0.000000
     3  C    2.449335   1.401843   0.000000
     4  C    2.818634   2.415662   1.387814   0.000000
     5  C    2.444837   2.798667   2.420174   1.399832   0.000000
     6  C    1.426895   2.440449   2.808240   2.423213   1.393225
     7  H    3.418542   2.140632   1.084756   2.164947   3.413857
     8  H    3.904469   3.397894   2.142905   1.085840   2.157760
     9  H    3.417877   3.882782   3.408317   2.170263   1.084290
    10  C    2.573318   3.842825   4.304747   3.766535   2.464168
    11  H    2.810539   4.194512   4.922507   4.609327   3.412574
    12  O    3.662878   4.818706   5.034126   4.208532   2.811226
    13  C    1.472578   2.496005   3.788027   4.290441   3.805787
    14  O    2.404054   3.629682   4.831766   5.115868   4.355061
    15  H    2.033864   2.614981   4.004035   4.744966   4.469271
    16  O    2.460619   1.363991   2.329999   3.615020   4.158441
    17  H    2.545816   1.946269   3.171473   4.350679   4.660103
                    6          7          8          9         10
     6  C    0.000000
     7  H    3.892760   0.000000
     8  H    3.404985   2.494423   0.000000
     9  H    2.133791   4.321803   2.504402   0.000000
    10  C    1.501171   5.389317   4.620702   2.612388   0.000000
    11  H    2.228327   5.988063   5.535323   3.663193   1.099244
    12  O    2.382676   6.100409   4.859871   2.469594   1.218834
    13  C    2.538568   4.635750   5.376157   4.669592   3.032603
    14  O    2.975428   5.746217   6.186197   5.030314   2.863091
    15  H    3.300842   4.697732   5.816536   5.402080   3.900748
    16  O    3.724666   2.503559   4.472205   5.242621   5.027704
    17  H    3.951051   3.459867   5.287130   5.731252   5.064100
                   11         12         13         14         15
    11  H    0.000000
    12  O    2.017199   0.000000
    13  C    2.737212   4.213253   0.000000
    14  O    2.273006   3.939794   1.220178   0.000000
    15  H    3.549719   5.095129   0.900000   1.823845   0.000000
    16  O    5.198498   6.076842   2.918570   4.113437   2.598877
    17  H    5.044010   6.189696   2.471398   3.605150   1.920672
                   16         17
    16  O    0.000000
    17  H    0.965333   0.000000
 Symmetry turned off by external request.
 Stoichiometry    C8H6O3
 Framework group  C1[X(C8H6O3)]
 Deg. of freedom    45
 Full point group                 C1      NOp   1
 Rotational constants (GHZ):           1.5391783           1.0752250           0.6359517
 Standard basis: 6-31++G(d,p) (6D, 7F)
   245 basis functions,   400 primitive gaussians,   245 cartesian basis functions
    39 alpha electrons       39 beta electrons
       nuclear repulsion energy       562.3261750613 Hartrees.
 NAtoms=   17 NActive=   17 NUniq=   17 SFac= 1.00D+00 NAtFMM=   60 NAOKFM=F Big=F
 Integral buffers will be    131072 words long.
 Raffenetti 2 integral format.
 Two-electron integral symmetry is turned off.
 One-electron integrals computed using PRISM.
 NBasis=   245 RedAO= T EigKep=  2.05D-06  NBF=   245
 NBsUse=   244 1.00D-06 EigRej=  5.32D-07 NBFU=   244
 Initial guess from the checkpoint file:  "C:\Users\Administrator\Desktop\dataset_dft\C8H6O3\C8H6O3.chk"
 B after Tr=    -0.001886   -0.000834    0.001714
         Rot=    1.000000    0.000045   -0.000179   -0.000120 Ang=   0.03 deg.
 ExpMin= 3.60D-02 ExpMax= 5.48D+03 ExpMxC= 8.25D+02 IAcc=3 IRadAn=         5 AccDes= 0.00D+00
 Harris functional with IExCor=  402 and IRadAn=       5 diagonalized for initial guess.
 HarFok:  IExCor=  402 AccDes= 0.00D+00 IRadAn=         5 IDoV= 1 UseB2=F ITyADJ=14
 ICtDFT=  3500011 ScaDFX=  1.000000  1.000000  1.000000  1.000000
 FoFCou: FMM=F IPFlag=           0 FMFlag=      100000 FMFlg1=           0
         NFxFlg=           0 DoJE=T BraDBF=F KetDBF=T FulRan=T
         wScrn=  0.000000 ICntrl=       500 IOpCl=  0 I1Cent=   200000004 NGrid=           0
         NMat0=    1 NMatS0=      1 NMatT0=    0 NMatD0=    1 NMtDS0=    0 NMtDT0=    0
 Symmetry not used in FoFCou.
 Requested convergence on RMS density matrix=1.00D-08 within 128 cycles.
 Requested convergence on MAX density matrix=1.00D-06.
 Requested convergence on             energy=1.00D-06.
 No special actions if energy rises.
 SCF Done:  E(RB3LYP) =  -534.100836102     A.U. after   13 cycles
            NFock= 13  Conv=0.61D-08     -V/T= 2.0085
 Variable Step   Value    
 -------- ---- -----------
    14       5    1.889726
 ---------------------------------------------------------------------------------------------------
                            Z-MATRIX (ANGSTROMS AND DEGREES)
   CD    Cent   Atom    N1       Length/X        N2       Alpha/Y        N3        Beta/Z          J
 ---------------------------------------------------------------------------------------------------
      1      1  C 
      2      2  C        1   1.416405(     1)
      3      3  C        2   1.401843(     2)      1  120.707(    17)
      4      4  C        3   1.387814(     3)      2  119.979(    18)      1    0.201(    32)      0
      5      5  C        4   1.399832(     4)      3  120.495(    19)      2   -0.482(    33)      0
      6      6  C        5   1.393225(     5)      4  120.358(    20)      3    0.190(    34)      0
      7      7  H        3   1.084756(     6)      2  118.270(    21)      1  179.519(    35)      0
      8      8  H        4   1.085840(     7)      3  119.562(    22)      2  179.722(    36)      0
      9      9  H        5   1.084290(     8)      4  121.250(    23)      3 -178.844(    37)      0
     10     10  C        6   1.501171(     9)      5  116.670(    24)      4 -175.432(    38)      0
     11     11  H       10   1.099244(    10)      6  117.103(    25)      5  156.547(    39)      0
     12     12  O       10   1.218834(    11)      6  121.980(    26)      5  -21.197(    40)      0
     13     13  C        1   1.472578(    12)      2  119.519(    27)      3 -178.107(    41)      0
     14     14  O       13   1.220178(    13)      1  126.195(    28)      2  163.535(    42)      0
     15     15  H       13   1.000000(    14)      1  115.908(    29)      2  -16.954(    43)      0
     16     16  O        2   1.363991(    15)      1  124.490(    30)      6  178.799(    44)      0
     17     17  H       16   0.965333(    16)      2  112.214(    31)      1   -0.873(    45)      0
 ---------------------------------------------------------------------------------------------------
                         Z-Matrix orientation:                         
 ---------------------------------------------------------------------
 Center     Atomic      Atomic             Coordinates (Angstroms)
 Number     Number       Type             X           Y           Z
 ---------------------------------------------------------------------
      1          6           0        0.000000    0.000000    0.000000
      2          6           0        0.000000    0.000000    1.416405
      3          6           0        1.205288    0.000000    2.132257
      4          6           0        2.415384    0.004207    1.452790
      5          6           0        2.444256   -0.001670    0.053268
      6          6           0        1.256849   -0.007847   -0.675499
      7          1           0        1.159177    0.008018    3.216003
      8          1           0        3.344911    0.008756    2.014044
      9          1           0        3.382535   -0.017173   -0.489941
     10          6           0        1.382332   -0.120696   -2.167154
     11          1           0        0.515109   -0.517038   -2.714123
     12          8           0        2.410696    0.171714   -2.752405
     13          6           0       -1.280730    0.042319   -0.725552
     14          8           0       -1.433175    0.326596   -1.902319
     15          1           0       -2.093089   -0.193281   -0.192106
     16          8           0       -1.123825    0.030583    2.188773
     17          1           0       -1.929967    0.066134    1.658925
 ---------------------------------------------------------------------
                    Distance matrix (angstroms):
                    1          2          3          4          5
     1  C    0.000000
     2  C    1.416405   0.000000
     3  C    2.449335   1.401843   0.000000
     4  C    2.818634   2.415662   1.387814   0.000000
     5  C    2.444837   2.798667   2.420174   1.399832   0.000000
     6  C    1.426895   2.440449   2.808240   2.423213   1.393225
     7  H    3.418542   2.140632   1.084756   2.164947   3.413857
     8  H    3.904469   3.397894   2.142905   1.085840   2.157760
     9  H    3.417877   3.882782   3.408317   2.170263   1.084290
    10  C    2.573318   3.842825   4.304747   3.766535   2.464168
    11  H    2.810539   4.194512   4.922507   4.609327   3.412574
    12  O    3.662878   4.818706   5.034126   4.208532   2.811226
    13  C    1.472578   2.496005   3.788027   4.290441   3.805787
    14  O    2.404054   3.629682   4.831766   5.115868   4.355061
    15  H    2.110754   2.646826   4.039717   4.803230   4.548013
    16  O    2.460619   1.363991   2.329999   3.615020   4.158441
    17  H    2.545816   1.946269   3.171473   4.350679   4.660103
                    6          7          8          9         10
     6  C    0.000000
     7  H    3.892760   0.000000
     8  H    3.404985   2.494423   0.000000
     9  H    2.133791   4.321803   2.504402   0.000000
    10  C    1.501171   5.389317   4.620702   2.612388   0.000000
    11  H    2.228327   5.988063   5.535323   3.663193   1.099244
    12  O    2.382676   6.100409   4.859871   2.469594   1.218834
    13  C    2.538568   4.635750   5.376157   4.669592   3.032603
    14  O    2.975428   5.746217   6.186197   5.030314   2.863091
    15  H    3.389711   4.715184   5.871947   5.486546   3.998078
    16  O    3.724666   2.503559   4.472205   5.242621   5.027704
    17  H    3.951051   3.459867   5.287130   5.731252   5.064100
                   11         12         13         14         15
    11  H    0.000000
    12  O    2.017199   0.000000
    13  C    2.737212   4.213253   0.000000
    14  O    2.273006   3.939794   1.220178   0.000000
    15  H    3.642538   5.193499   1.000000   1.905410   0.000000
    16  O    5.198498   6.076842   2.918570   4.113437   2.580344
    17  H    5.044010   6.189696   2.471398   3.605150   1.876226
                   16         17
    16  O    0.000000
    17  H    0.965333   0.000000
 Symmetry turned off by external request.
 Stoichiometry    C8H6O3
 Framework group  C1[X(C8H6O3)]
 Deg. of freedom    45
 Full point group                 C1      NOp   1
 Rotational constants (GHZ):           1.5377633           1.0748851           0.6356150
 Standard basis: 6-31++G(d,p) (6D, 7F)
   245 basis functions,   400 primitive gaussians,   245 cartesian basis functions
    39 alpha electrons       39 beta electrons
       nuclear repulsion energy       561.7260056961 Hartrees.
 NAtoms=   17 NActive=   17 NUniq=   17 SFac= 1.00D+00 NAtFMM=   60 NAOKFM=F Big=F
 Integral buffers will be    131072 words long.
 Raffenetti 2 integral format.
 Two-electron integral symmetry is turned off.
 One-electron integrals computed using PRISM.
 NBasis=   245 RedAO= T EigKep=  2.05D-06  NBF=   245
 NBsUse=   244 1.00D-06 EigRej=  5.35D-07 NBFU=   244
 Initial guess from the checkpoint file:  "C:\Users\Administrator\Desktop\dataset_dft\C8H6O3\C8H6O3.chk"
 B after Tr=    -0.001886   -0.000833    0.001713
         Rot=    1.000000    0.000045   -0.000178   -0.000120 Ang=   0.03 deg.
 ExpMin= 3.60D-02 ExpMax= 5.48D+03 ExpMxC= 8.25D+02 IAcc=3 IRadAn=         5 AccDes= 0.00D+00
 Harris functional with IExCor=  402 and IRadAn=       5 diagonalized for initial guess.
 HarFok:  IExCor=  402 AccDes= 0.00D+00 IRadAn=         5 IDoV= 1 UseB2=F ITyADJ=14
 ICtDFT=  3500011 ScaDFX=  1.000000  1.000000  1.000000  1.000000
 FoFCou: FMM=F IPFlag=           0 FMFlag=      100000 FMFlg1=           0
         NFxFlg=           0 DoJE=T BraDBF=F KetDBF=T FulRan=T
         wScrn=  0.000000 ICntrl=       500 IOpCl=  0 I1Cent=   200000004 NGrid=           0
         NMat0=    1 NMatS0=      1 NMatT0=    0 NMatD0=    1 NMtDS0=    0 NMtDT0=    0
 Symmetry not used in FoFCou.
 Requested convergence on RMS density matrix=1.00D-08 within 128 cycles.
 Requested convergence on MAX density matrix=1.00D-06.
 Requested convergence on             energy=1.00D-06.
 No special actions if energy rises.
 SCF Done:  E(RB3LYP) =  -534.130410482     A.U. after   13 cycles
            NFock= 13  Conv=0.66D-08     -V/T= 2.0090
 Variable Step   Value    
 -------- ---- -----------
    14       6    2.078699
 ---------------------------------------------------------------------------------------------------
                            Z-MATRIX (ANGSTROMS AND DEGREES)
   CD    Cent   Atom    N1       Length/X        N2       Alpha/Y        N3        Beta/Z          J
 ---------------------------------------------------------------------------------------------------
      1      1  C 
      2      2  C        1   1.416405(     1)
      3      3  C        2   1.401843(     2)      1  120.707(    17)
      4      4  C        3   1.387814(     3)      2  119.979(    18)      1    0.201(    32)      0
      5      5  C        4   1.399832(     4)      3  120.495(    19)      2   -0.482(    33)      0
      6      6  C        5   1.393225(     5)      4  120.358(    20)      3    0.190(    34)      0
      7      7  H        3   1.084756(     6)      2  118.270(    21)      1  179.519(    35)      0
      8      8  H        4   1.085840(     7)      3  119.562(    22)      2  179.722(    36)      0
      9      9  H        5   1.084290(     8)      4  121.250(    23)      3 -178.844(    37)      0
     10     10  C        6   1.501171(     9)      5  116.670(    24)      4 -175.432(    38)      0
     11     11  H       10   1.099244(    10)      6  117.103(    25)      5  156.547(    39)      0
     12     12  O       10   1.218834(    11)      6  121.980(    26)      5  -21.197(    40)      0
     13     13  C        1   1.472578(    12)      2  119.519(    27)      3 -178.107(    41)      0
     14     14  O       13   1.220178(    13)      1  126.195(    28)      2  163.535(    42)      0
     15     15  H       13   1.100000(    14)      1  115.908(    29)      2  -16.954(    43)      0
     16     16  O        2   1.363991(    15)      1  124.490(    30)      6  178.799(    44)      0
     17     17  H       16   0.965333(    16)      2  112.214(    31)      1   -0.873(    45)      0
 ---------------------------------------------------------------------------------------------------
                         Z-Matrix orientation:                         
 ---------------------------------------------------------------------
 Center     Atomic      Atomic             Coordinates (Angstroms)
 Number     Number       Type             X           Y           Z
 ---------------------------------------------------------------------
      1          6           0        0.000000    0.000000    0.000000
      2          6           0        0.000000    0.000000    1.416405
      3          6           0        1.205288    0.000000    2.132257
      4          6           0        2.415384    0.004207    1.452790
      5          6           0        2.444256   -0.001670    0.053268
      6          6           0        1.256849   -0.007847   -0.675499
      7          1           0        1.159177    0.008018    3.216003
      8          1           0        3.344911    0.008756    2.014044
      9          1           0        3.382535   -0.017173   -0.489941
     10          6           0        1.382332   -0.120696   -2.167154
     11          1           0        0.515109   -0.517038   -2.714123
     12          8           0        2.410696    0.171714   -2.752405
     13          6           0       -1.280730    0.042319   -0.725552
     14          8           0       -1.433175    0.326596   -1.902319
     15          1           0       -2.174325   -0.216841   -0.138762
     16          8           0       -1.123825    0.030583    2.188773
     17          1           0       -1.929967    0.066134    1.658925
 ---------------------------------------------------------------------
                    Distance matrix (angstroms):
                    1          2          3          4          5
     1  C    0.000000
     2  C    1.416405   0.000000
     3  C    2.449335   1.401843   0.000000
     4  C    2.818634   2.415662   1.387814   0.000000
     5  C    2.444837   2.798667   2.420174   1.399832   0.000000
     6  C    1.426895   2.440449   2.808240   2.423213   1.393225
     7  H    3.418542   2.140632   1.084756   2.164947   3.413857
     8  H    3.904469   3.397894   2.142905   1.085840   2.157760
     9  H    3.417877   3.882782   3.408317   2.170263   1.084290
    10  C    2.573318   3.842825   4.304747   3.766535   2.464168
    11  H    2.810539   4.194512   4.922507   4.609327   3.412574
    12  O    3.662878   4.818706   5.034126   4.208532   2.811226
    13  C    1.472578   2.496005   3.788027   4.290441   3.805787
    14  O    2.404054   3.629682   4.831766   5.115868   4.355061
    15  H    2.189512   2.682024   4.077540   4.862852   4.627577
    16  O    2.460619   1.363991   2.329999   3.615020   4.158441
    17  H    2.545816   1.946269   3.171473   4.350679   4.660103
                    6          7          8          9         10
     6  C    0.000000
     7  H    3.892760   0.000000
     8  H    3.404985   2.494423   0.000000
     9  H    2.133791   4.321803   2.504402   0.000000
    10  C    1.501171   5.389317   4.620702   2.612388   0.000000
    11  H    2.228327   5.988063   5.535323   3.663193   1.099244
    12  O    2.382676   6.100409   4.859871   2.469594   1.218834
    13  C    2.538568   4.635750   5.376157   4.669592   3.032603
    14  O    2.975428   5.746217   6.186197   5.030314   2.863091
    15  H    3.479184   4.734685   5.928527   5.571525   4.095537
    16  O    3.724666   2.503559   4.472205   5.242621   5.027704
    17  H    3.951051   3.459867   5.287130   5.731252   5.064100
                   11         12         13         14         15
    11  H    0.000000
    12  O    2.017199   0.000000
    13  C    2.737212   4.213253   0.000000
    14  O    2.273006   3.939794   1.220178   0.000000
    15  H    3.735727   5.291930   1.100000   1.988659   0.000000
    16  O    5.198498   6.076842   2.918570   4.113437   2.565578
    17  H    5.044010   6.189696   2.471398   3.605150   1.836155
                   16         17
    16  O    0.000000
    17  H    0.965333   0.000000
 Symmetry turned off by external request.
 Stoichiometry    C8H6O3
 Framework group  C1[X(C8H6O3)]
 Deg. of freedom    45
 Full point group                 C1      NOp   1
 Rotational constants (GHZ):           1.5363196           1.0745124           0.6352636
 Standard basis: 6-31++G(d,p) (6D, 7F)
   245 basis functions,   400 primitive gaussians,   245 cartesian basis functions
    39 alpha electrons       39 beta electrons
       nuclear repulsion energy       561.1981397951 Hartrees.
 NAtoms=   17 NActive=   17 NUniq=   17 SFac= 1.00D+00 NAtFMM=   60 NAOKFM=F Big=F
 Integral buffers will be    131072 words long.
 Raffenetti 2 integral format.
 Two-electron integral symmetry is turned off.
 One-electron integrals computed using PRISM.
 NBasis=   245 RedAO= T EigKep=  2.04D-06  NBF=   245
 NBsUse=   244 1.00D-06 EigRej=  5.38D-07 NBFU=   244
 Initial guess from the checkpoint file:  "C:\Users\Administrator\Desktop\dataset_dft\C8H6O3\C8H6O3.chk"
 B after Tr=    -0.001887   -0.000832    0.001712
         Rot=    1.000000    0.000045   -0.000178   -0.000120 Ang=   0.03 deg.
 ExpMin= 3.60D-02 ExpMax= 5.48D+03 ExpMxC= 8.25D+02 IAcc=3 IRadAn=         5 AccDes= 0.00D+00
 Harris functional with IExCor=  402 and IRadAn=       5 diagonalized for initial guess.
 HarFok:  IExCor=  402 AccDes= 0.00D+00 IRadAn=         5 IDoV= 1 UseB2=F ITyADJ=14
 ICtDFT=  3500011 ScaDFX=  1.000000  1.000000  1.000000  1.000000
 FoFCou: FMM=F IPFlag=           0 FMFlag=      100000 FMFlg1=           0
         NFxFlg=           0 DoJE=T BraDBF=F KetDBF=T FulRan=T
         wScrn=  0.000000 ICntrl=       500 IOpCl=  0 I1Cent=   200000004 NGrid=           0
         NMat0=    1 NMatS0=      1 NMatT0=    0 NMatD0=    1 NMtDS0=    0 NMtDT0=    0
 Symmetry not used in FoFCou.
 Requested convergence on RMS density matrix=1.00D-08 within 128 cycles.
 Requested convergence on MAX density matrix=1.00D-06.
 Requested convergence on             energy=1.00D-06.
 No special actions if energy rises.
 SCF Done:  E(RB3LYP) =  -534.138921426     A.U. after   13 cycles
            NFock= 13  Conv=0.68D-08     -V/T= 2.0093
 Variable Step   Value    
 -------- ---- -----------
    14       7    2.267671
 ---------------------------------------------------------------------------------------------------
                            Z-MATRIX (ANGSTROMS AND DEGREES)
   CD    Cent   Atom    N1       Length/X        N2       Alpha/Y        N3        Beta/Z          J
 ---------------------------------------------------------------------------------------------------
      1      1  C 
      2      2  C        1   1.416405(     1)
      3      3  C        2   1.401843(     2)      1  120.707(    17)
      4      4  C        3   1.387814(     3)      2  119.979(    18)      1    0.201(    32)      0
      5      5  C        4   1.399832(     4)      3  120.495(    19)      2   -0.482(    33)      0
      6      6  C        5   1.393225(     5)      4  120.358(    20)      3    0.190(    34)      0
      7      7  H        3   1.084756(     6)      2  118.270(    21)      1  179.519(    35)      0
      8      8  H        4   1.085840(     7)      3  119.562(    22)      2  179.722(    36)      0
      9      9  H        5   1.084290(     8)      4  121.250(    23)      3 -178.844(    37)      0
     10     10  C        6   1.501171(     9)      5  116.670(    24)      4 -175.432(    38)      0
     11     11  H       10   1.099244(    10)      6  117.103(    25)      5  156.547(    39)      0
     12     12  O       10   1.218834(    11)      6  121.980(    26)      5  -21.197(    40)      0
     13     13  C        1   1.472578(    12)      2  119.519(    27)      3 -178.107(    41)      0
     14     14  O       13   1.220178(    13)      1  126.195(    28)      2  163.535(    42)      0
     15     15  H       13   1.200000(    14)      1  115.908(    29)      2  -16.954(    43)      0
     16     16  O        2   1.363991(    15)      1  124.490(    30)      6  178.799(    44)      0
     17     17  H       16   0.965333(    16)      2  112.214(    31)      1   -0.873(    45)      0
 ---------------------------------------------------------------------------------------------------
                         Z-Matrix orientation:                         
 ---------------------------------------------------------------------
 Center     Atomic      Atomic             Coordinates (Angstroms)
 Number     Number       Type             X           Y           Z
 ---------------------------------------------------------------------
      1          6           0        0.000000    0.000000    0.000000
      2          6           0        0.000000    0.000000    1.416405
      3          6           0        1.205288    0.000000    2.132257
      4          6           0        2.415384    0.004207    1.452790
      5          6           0        2.444256   -0.001670    0.053268
      6          6           0        1.256849   -0.007847   -0.675499
      7          1           0        1.159177    0.008018    3.216003
      8          1           0        3.344911    0.008756    2.014044
      9          1           0        3.382535   -0.017173   -0.489941
     10          6           0        1.382332   -0.120696   -2.167154
     11          1           0        0.515109   -0.517038   -2.714123
     12          8           0        2.410696    0.171714   -2.752405
     13          6           0       -1.280730    0.042319   -0.725552
     14          8           0       -1.433175    0.326596   -1.902319
     15          1           0       -2.255561   -0.240401   -0.085417
     16          8           0       -1.123825    0.030583    2.188773
     17          1           0       -1.929967    0.066134    1.658925
 ---------------------------------------------------------------------
                    Distance matrix (angstroms):
                    1          2          3          4          5
     1  C    0.000000
     2  C    1.416405   0.000000
     3  C    2.449335   1.401843   0.000000
     4  C    2.818634   2.415662   1.387814   0.000000
     5  C    2.444837   2.798667   2.420174   1.399832   0.000000
     6  C    1.426895   2.440449   2.808240   2.423213   1.393225
     7  H    3.418542   2.140632   1.084756   2.164947   3.413857
     8  H    3.904469   3.397894   2.142905   1.085840   2.157760
[...]
         NFxFlg=           0 DoJE=T BraDBF=F KetDBF=T FulRan=T
         wScrn=  0.000000 ICntrl=       500 IOpCl=  0 I1Cent=   200000004 NGrid=           0
         NMat0=    1 NMatS0=      1 NMatT0=    0 NMatD0=    1 NMtDS0=    0 NMtDT0=    0
 Symmetry not used in FoFCou.
 Requested convergence on RMS density matrix=1.00D-08 within 128 cycles.
 Requested convergence on MAX density matrix=1.00D-06.
 Requested convergence on             energy=1.00D-06.
 No special actions if energy rises.
 SCF Done:  E(RB3LYP) =  -534.014299130     A.U. after   13 cycles
            NFock= 13  Conv=0.63D-08     -V/T= 2.0101
 Variable Step   Value    
 -------- ---- -----------
    14      19    4.535343
 ---------------------------------------------------------------------------------------------------
                            Z-MATRIX (ANGSTROMS AND DEGREES)
   CD    Cent   Atom    N1       Length/X        N2       Alpha/Y        N3        Beta/Z          J
 ---------------------------------------------------------------------------------------------------
      1      1  C 
      2      2  C        1   1.416405(     1)
      3      3  C        2   1.401843(     2)      1  120.707(    17)
      4      4  C        3   1.387814(     3)      2  119.979(    18)      1    0.201(    32)      0
      5      5  C        4   1.399832(     4)      3  120.495(    19)      2   -0.482(    33)      0
      6      6  C        5   1.393225(     5)      4  120.358(    20)      3    0.190(    34)      0
      7      7  H        3   1.084756(     6)      2  118.270(    21)      1  179.519(    35)      0
      8      8  H        4   1.085840(     7)      3  119.562(    22)      2  179.722(    36)      0
      9      9  H        5   1.084290(     8)      4  121.250(    23)      3 -178.844(    37)      0
     10     10  C        6   1.501171(     9)      5  116.670(    24)      4 -175.432(    38)      0
     11     11  H       10   1.099244(    10)      6  117.103(    25)      5  156.547(    39)      0
     12     12  O       10   1.218834(    11)      6  121.980(    26)      5  -21.197(    40)      0
     13     13  C        1   1.472578(    12)      2  119.519(    27)      3 -178.107(    41)      0
     14     14  O       13   1.220178(    13)      1  126.195(    28)      2  163.535(    42)      0
     15     15  H       13   2.400000(    14)      1  115.908(    29)      2  -16.954(    43)      0
     16     16  O        2   1.363991(    15)      1  124.490(    30)      6  178.799(    44)      0
     17     17  H       16   0.965333(    16)      2  112.214(    31)      1   -0.873(    45)      0
 ---------------------------------------------------------------------------------------------------
                         Z-Matrix orientation:                         
 ---------------------------------------------------------------------
 Center     Atomic      Atomic             Coordinates (Angstroms)
 Number     Number       Type             X           Y           Z
 ---------------------------------------------------------------------
      1          6           0        0.000000    0.000000    0.000000
      2          6           0        0.000000    0.000000    1.416405
      3          6           0        1.205288    0.000000    2.132257
      4          6           0        2.415384    0.004207    1.452790
      5          6           0        2.444256   -0.001670    0.053268
      6          6           0        1.256849   -0.007847   -0.675499
      7          1           0        1.159177    0.008018    3.216003
      8          1           0        3.344911    0.008756    2.014044
      9          1           0        3.382535   -0.017173   -0.489941
     10          6           0        1.382332   -0.120696   -2.167154
     11          1           0        0.515109   -0.517038   -2.714123
     12          8           0        2.410696    0.171714   -2.752405
     13          6           0       -1.280730    0.042319   -0.725552
     14          8           0       -1.433175    0.326596   -1.902319
     15          1           0       -3.230392   -0.523121    0.554718
     16          8           0       -1.123825    0.030583    2.188773
     17          1           0       -1.929967    0.066134    1.658925
 ---------------------------------------------------------------------
                    Distance matrix (angstroms):
                    1          2          3          4          5
     1  C    0.000000
     2  C    1.416405   0.000000
     3  C    2.449335   1.401843   0.000000
     4  C    2.818634   2.415662   1.387814   0.000000
     5  C    2.444837   2.798667   2.420174   1.399832   0.000000
     6  C    1.426895   2.440449   2.808240   2.423213   1.393225
     7  H    3.418542   2.140632   1.084756   2.164947   3.413857
     8  H    3.904469   3.397894   2.142905   1.085840   2.157760
     9  H    3.417877   3.882782   3.408317   2.170263   1.084290
    10  C    2.573318   3.842825   4.304747   3.766535   2.464168
    11  H    2.810539   4.194512   4.922507   4.609327   3.412574
    12  O    3.662878   4.818706   5.034126   4.208532   2.811226
    13  C    1.472578   2.496005   3.788027   4.290441   3.805787
    14  O    2.404054   3.629682   4.831766   5.115868   4.355061
    15  H    3.319157   3.384021   4.736829   5.741028   5.720577
    16  O    2.460619   1.363991   2.329999   3.615020   4.158441
    17  H    2.545816   1.946269   3.171473   4.350679   4.660103
                    6          7          8          9         10
     6  C    0.000000
     7  H    3.892760   0.000000
     8  H    3.404985   2.494423   0.000000
     9  H    2.133791   4.321803   2.504402   0.000000
    10  C    1.501171   5.389317   4.620702   2.612388   0.000000
    11  H    2.228327   5.988063   5.535323   3.663193   1.099244
    12  O    2.382676   6.100409   4.859871   2.469594   1.218834
    13  C    2.538568   4.635750   5.376157   4.669592   3.032603
    14  O    2.975428   5.746217   6.186197   5.030314   2.863091
    15  H    4.681269   5.160704   6.756267   6.714023   5.371011
    16  O    3.724666   2.503559   4.472205   5.242621   5.027704
    17  H    3.951051   3.459867   5.287130   5.731252   5.064100
                   11         12         13         14         15
    11  H    0.000000
    12  O    2.017199   0.000000
    13  C    2.737212   4.213253   0.000000
    14  O    2.273006   3.939794   1.220178   0.000000
    15  H    4.971332   6.575845   2.400000   3.160545   0.000000
    16  O    5.198498   6.076842   2.918570   4.113437   2.722931
    17  H    5.044010   6.189696   2.471398   3.605150   1.804883
                   16         17
    16  O    0.000000
    17  H    0.965333   0.000000
 Symmetry turned off by external request.
 Stoichiometry    C8H6O3
 Framework group  C1[X(C8H6O3)]
 Deg. of freedom    45
 Full point group                 C1      NOp   1
 Rotational constants (GHZ):           1.5152667           1.0666057           0.6293782
 Standard basis: 6-31++G(d,p) (6D, 7F)
   245 basis functions,   400 primitive gaussians,   245 cartesian basis functions
    39 alpha electrons       39 beta electrons
       nuclear repulsion energy       557.0303509705 Hartrees.
 NAtoms=   17 NActive=   17 NUniq=   17 SFac= 1.00D+00 NAtFMM=   60 NAOKFM=F Big=F
 Integral buffers will be    131072 words long.
 Raffenetti 2 integral format.
 Two-electron integral symmetry is turned off.
 One-electron integrals computed using PRISM.
 NBasis=   245 RedAO= T EigKep=  2.12D-06  NBF=   245
 NBsUse=   244 1.00D-06 EigRej=  5.31D-07 NBFU=   244
 Initial guess from the checkpoint file:  "C:\Users\Administrator\Desktop\dataset_dft\C8H6O3\C8H6O3.chk"
 B after Tr=    -0.001896   -0.000818    0.001695
         Rot=    1.000000    0.000044   -0.000175   -0.000116 Ang=   0.02 deg.
 ExpMin= 3.60D-02 ExpMax= 5.48D+03 ExpMxC= 8.25D+02 IAcc=3 IRadAn=         5 AccDes= 0.00D+00
 Harris functional with IExCor=  402 and IRadAn=       5 diagonalized for initial guess.
 HarFok:  IExCor=  402 AccDes= 0.00D+00 IRadAn=         5 IDoV= 1 UseB2=F ITyADJ=14
 ICtDFT=  3500011 ScaDFX=  1.000000  1.000000  1.000000  1.000000
 FoFCou: FMM=F IPFlag=           0 FMFlag=      100000 FMFlg1=           0
         NFxFlg=           0 DoJE=T BraDBF=F KetDBF=T FulRan=T
         wScrn=  0.000000 ICntrl=       500 IOpCl=  0 I1Cent=   200000004 NGrid=           0
         NMat0=    1 NMatS0=      1 NMatT0=    0 NMatD0=    1 NMtDS0=    0 NMtDT0=    0
 Symmetry not used in FoFCou.
 Requested convergence on RMS density matrix=1.00D-08 within 128 cycles.
 Requested convergence on MAX density matrix=1.00D-06.
 Requested convergence on             energy=1.00D-06.
 No special actions if energy rises.
 SCF Done:  E(RB3LYP) =  -534.006868935     A.U. after   13 cycles
            NFock= 13  Conv=0.70D-08     -V/T= 2.0101
 Variable Step   Value    
 -------- ---- -----------
    14      20    4.724315
 ---------------------------------------------------------------------------------------------------
                            Z-MATRIX (ANGSTROMS AND DEGREES)
   CD    Cent   Atom    N1       Length/X        N2       Alpha/Y        N3        Beta/Z          J
 ---------------------------------------------------------------------------------------------------
      1      1  C 
      2      2  C        1   1.416405(     1)
      3      3  C        2   1.401843(     2)      1  120.707(    17)
      4      4  C        3   1.387814(     3)      2  119.979(    18)      1    0.201(    32)      0
      5      5  C        4   1.399832(     4)      3  120.495(    19)      2   -0.482(    33)      0
      6      6  C        5   1.393225(     5)      4  120.358(    20)      3    0.190(    34)      0
      7      7  H        3   1.084756(     6)      2  118.270(    21)      1  179.519(    35)      0
      8      8  H        4   1.085840(     7)      3  119.562(    22)      2  179.722(    36)      0
      9      9  H        5   1.084290(     8)      4  121.250(    23)      3 -178.844(    37)      0
     10     10  C        6   1.501171(     9)      5  116.670(    24)      4 -175.432(    38)      0
     11     11  H       10   1.099244(    10)      6  117.103(    25)      5  156.547(    39)      0
     12     12  O       10   1.218834(    11)      6  121.980(    26)      5  -21.197(    40)      0
     13     13  C        1   1.472578(    12)      2  119.519(    27)      3 -178.107(    41)      0
     14     14  O       13   1.220178(    13)      1  126.195(    28)      2  163.535(    42)      0
     15     15  H       13   2.500000(    14)      1  115.908(    29)      2  -16.954(    43)      0
     16     16  O        2   1.363991(    15)      1  124.490(    30)      6  178.799(    44)      0
     17     17  H       16   0.965333(    16)      2  112.214(    31)      1   -0.873(    45)      0
 ---------------------------------------------------------------------------------------------------
                         Z-Matrix orientation:                         
 ---------------------------------------------------------------------
 Center     Atomic      Atomic             Coordinates (Angstroms)
 Number     Number       Type             X           Y           Z
 ---------------------------------------------------------------------
      1          6           0        0.000000    0.000000    0.000000
      2          6           0        0.000000    0.000000    1.416405
      3          6           0        1.205288    0.000000    2.132257
      4          6           0        2.415384    0.004207    1.452790
      5          6           0        2.444256   -0.001670    0.053268
      6          6           0        1.256849   -0.007847   -0.675499
      7          1           0        1.159177    0.008018    3.216003
      8          1           0        3.344911    0.008756    2.014044
      9          1           0        3.382535   -0.017173   -0.489941
     10          6           0        1.382332   -0.120696   -2.167154
     11          1           0        0.515109   -0.517038   -2.714123
     12          8           0        2.410696    0.171714   -2.752405
     13          6           0       -1.280730    0.042319   -0.725552
     14          8           0       -1.433175    0.326596   -1.902319
     15          1           0       -3.311628   -0.546681    0.608063
     16          8           0       -1.123825    0.030583    2.188773
     17          1           0       -1.929967    0.066134    1.658925
 ---------------------------------------------------------------------
                    Distance matrix (angstroms):
                    1          2          3          4          5
     1  C    0.000000
     2  C    1.416405   0.000000
     3  C    2.449335   1.401843   0.000000
     4  C    2.818634   2.415662   1.387814   0.000000
     5  C    2.444837   2.798667   2.420174   1.399832   0.000000
     6  C    1.426895   2.440449   2.808240   2.423213   1.393225
     7  H    3.418542   2.140632   1.084756   2.164947   3.413857
     8  H    3.904469   3.397894   2.142905   1.085840   2.157760
     9  H    3.417877   3.882782   3.408317   2.170263   1.084290
    10  C    2.573318   3.842825   4.304747   3.766535   2.464168
    11  H    2.810539   4.194512   4.922507   4.609327   3.412574
    12  O    3.662878   4.818706   5.034126   4.208532   2.811226
    13  C    1.472578   2.496005   3.788027   4.290441   3.805787
    14  O    2.404054   3.629682   4.831766   5.115868   4.355061
    15  H    3.411082   3.452414   4.798392   5.815128   5.808188
    16  O    2.460619   1.363991   2.329999   3.615020   4.158441
    17  H    2.545816   1.946269   3.171473   4.350679   4.660103
                    6          7          8          9         10
     6  C    0.000000
     7  H    3.892760   0.000000
     8  H    3.404985   2.494423   0.000000
     9  H    2.133791   4.321803   2.504402   0.000000
    10  C    1.501171   5.389317   4.620702   2.612388   0.000000
    11  H    2.228327   5.988063   5.535323   3.663193   1.099244
    12  O    2.382676   6.100409   4.859871   2.469594   1.218834
    13  C    2.538568   4.635750   5.376157   4.669592   3.032603
    14  O    2.975428   5.746217   6.186197   5.030314   2.863091
    15  H    4.775862   5.205491   6.826040   6.804250   5.469603
    16  O    3.724666   2.503559   4.472205   5.242621   5.027704
    17  H    3.951051   3.459867   5.287130   5.731252   5.064100
                   11         12         13         14         15
    11  H    0.000000
    12  O    2.017199   0.000000
    13  C    2.737212   4.213253   0.000000
    14  O    2.273006   3.939794   1.220178   0.000000
    15  H    5.067713   6.674866   2.500000   3.254722   0.000000
    16  O    5.198498   6.076842   2.918570   4.113437   2.760138
    17  H    5.044010   6.189696   2.471398   3.605150   1.840881
                   16         17
    16  O    0.000000
    17  H    0.965333   0.000000
 Symmetry turned off by external request.
 Stoichiometry    C8H6O3
 Framework group  C1[X(C8H6O3)]
 Deg. of freedom    45
 Full point group                 C1      NOp   1
 Rotational constants (GHZ):           1.5134976           1.0657567           0.6288261
 Standard basis: 6-31++G(d,p) (6D, 7F)
   245 basis functions,   400 primitive gaussians,   245 cartesian basis functions
    39 alpha electrons       39 beta electrons
       nuclear repulsion energy       556.8052059216 Hartrees.
 NAtoms=   17 NActive=   17 NUniq=   17 SFac= 1.00D+00 NAtFMM=   60 NAOKFM=F Big=F
 Integral buffers will be    131072 words long.
 Raffenetti 2 integral format.
 Two-electron integral symmetry is turned off.
 One-electron integrals computed using PRISM.
 NBasis=   245 RedAO= T EigKep=  2.12D-06  NBF=   245
 NBsUse=   244 1.00D-06 EigRej=  5.29D-07 NBFU=   244
 Initial guess from the checkpoint file:  "C:\Users\Administrator\Desktop\dataset_dft\C8H6O3\C8H6O3.chk"
 B after Tr=    -0.001897   -0.000817    0.001693
         Rot=    1.000000    0.000044   -0.000175   -0.000115 Ang=   0.02 deg.
 ExpMin= 3.60D-02 ExpMax= 5.48D+03 ExpMxC= 8.25D+02 IAcc=3 IRadAn=         5 AccDes= 0.00D+00
 Harris functional with IExCor=  402 and IRadAn=       5 diagonalized for initial guess.
 HarFok:  IExCor=  402 AccDes= 0.00D+00 IRadAn=         5 IDoV= 1 UseB2=F ITyADJ=14
 ICtDFT=  3500011 ScaDFX=  1.000000  1.000000  1.000000  1.000000
 FoFCou: FMM=F IPFlag=           0 FMFlag=      100000 FMFlg1=           0
         NFxFlg=           0 DoJE=T BraDBF=F KetDBF=T FulRan=T
         wScrn=  0.000000 ICntrl=       500 IOpCl=  0 I1Cent=   200000004 NGrid=           0
         NMat0=    1 NMatS0=      1 NMatT0=    0 NMatD0=    1 NMtDS0=    0 NMtDT0=    0
 Symmetry not used in FoFCou.
 Requested convergence on RMS density matrix=1.00D-08 within 128 cycles.
 Requested convergence on MAX density matrix=1.00D-06.
 Requested convergence on             energy=1.00D-06.
 No special actions if energy rises.
 SCF Done:  E(RB3LYP) =  -534.000012143     A.U. after   13 cycles
            NFock= 13  Conv=0.82D-08     -V/T= 2.0101
 Scan completed.
 
 Summary of the potential surface scan:
   N      B14         SCF    
 ----  ---------  -----------
    1     0.5000   -533.19360
    2     0.6000   -533.65442
    3     0.7000   -533.90237
    4     0.8000   -534.03417
    5     0.9000   -534.10084
    6     1.0000   -534.13041
    7     1.1000   -534.13892
    8     1.2000   -534.13575
    9     1.3000   -534.12640
   10     1.4000   -534.11410
   11     1.5000   -534.10071
   12     1.6000   -534.08728
   13     1.7000   -534.07438
   14     1.8000   -534.06226
   15     1.9000   -534.05102
   16     2.0000   -534.04066
   17     2.1000   -534.03113
   18     2.2000   -534.02236
   19     2.3000   -534.01430
   20     2.4000   -534.00687
   21     2.5000   -534.00001
 ----  ---------  -----------
  
 1|1|UNPC-BF-202112021916|Scan|RB3LYP|6-31++G(d,p)|C8H6O3|ADMINISTRATOR
 |21-Mar-2023|1||# scan b3lyp/6-31++g(d,p) nosymm||Title Card Required|
 |0,1|C|C,1,B1|C,2,B2,1,A1|C,3,B3,2,A2,1,D1,0|C,4,B4,3,A3,2,D2,0|C,5,B5
 ,4,A4,3,D3,0|H,3,B6,2,A5,1,D4,0|H,4,B7,3,A6,2,D5,0|H,5,B8,4,A7,3,D6,0|
 C,6,B9,5,A8,4,D7,0|H,10,B10,6,A9,5,D8,0|O,10,B11,6,A10,5,D9,0|C,1,B12,
 2,A11,3,D10,0|O,13,B13,1,A12,2,D11,0|H,13,B14,1,A13,2,D12,0|O,2,B15,1,
 A14,6,D13,0|H,16,B16,2,A15,1,D14,0||B1=1.41640543|B2=1.40184266|B3=1.3
 8781378|B4=1.39983165|B5=1.39322488|B6=1.08475603|B7=1.08583956|B8=1.0
 8428977|B9=1.50117117|B10=1.09924387|B11=1.21883362|B12=1.47257773|B13
 =1.22017785|B14=0.5,s,20,0.1|B15=1.36399058|B16=0.96533297|A1=120.7071
 7149|A2=119.97851826|A3=120.49469346|A4=120.35813845|A5=118.26996991|A
 6=119.56241157|A7=121.25035101|A8=116.67023011|A9=117.10293634|A10=121
 .97992104|A11=119.51879521|A12=126.19501193|A13=115.90757059|A14=124.4
 8955885|A15=112.21443445|D1=0.20052181|D2=-0.4816753|D3=0.18978724|D4=
 179.51915901|D5=179.72238218|D6=-178.84449407|D7=-175.4323131|D8=156.5
 4726604|D9=-21.1966001|D10=-178.10748664|D11=163.53528247|D12=-16.9540
 9935|D13=178.79889123|D14=-0.8725374||Version=EM64W-G16RevA.03|HF=-533
 .1936009,-533.6544181,-533.9023707,-534.0341699,-534.1008361,-534.1304
 105,-534.1389214,-534.135746,-534.126398,-534.1140989,-534.1007112,-53
 4.0872844,-534.0743796,-534.0622614,-534.0510217,-534.0406589,-534.031
 1272,-534.0223633,-534.0142991,-534.0068689,-534.0000121|RMSD=7.907e-0
 09,6.425e-009,5.526e-009,5.293e-009,6.126e-009,6.632e-009,6.842e-009,6
 .525e-009,6.343e-009,7.340e-009,8.460e-009,1.514e-009,1.641e-009,1.889
 e-009,8.615e-009,6.859e-009,6.005e-009,6.101e-009,6.342e-009,7.003e-00
 9,8.168e-009|PG=C01 [X(C8H6O3)]||@


 At the touch of love, everyone becomves a poet.
                                -- Plato
 Job cpu time:       0 days  0 hours 27 minutes 56.0 seconds.
 Elapsed time:       0 days  0 hours 27 minutes 35.2 seconds.
 File lengths (MBytes):  RWF=     42 Int=      0 D2E=      0 Chk=      7 Scr=      1
 Normal termination of Gaussian 16 at Tue Mar 21 19:09:23 2023.
