 Entering Link 1 = I:\G16W\l1.exe PID=       468.
  
 Copyright (c) 1988,1990,1992,1993,1995,1998,2003,2009,2016,
            Gaussian, Inc.  All Rights Reserved.
  
 This is part of the Gaussian(R) 16 program.  It is based on
 the Gaussian(R) 09 system (copyright 2009, Gaussian, Inc.),
 the Gaussian(R) 03 system (copyright 2003, Gaussian, Inc.),
 the Gaussian(R) 98 system (copyright 1998, Gaussian, Inc.),
 the Gaussian(R) 94 system (copyright 1995, Gaussian, Inc.),
 the Gaussian 92(TM) system (copyright 1992, Gaussian, Inc.),
 the Gaussian 90(TM) system (copyright 1990, Gaussian, Inc.),
 the Gaussian 88(TM) system (copyright 1988, Gaussian, Inc.),
 the Gaussian 86(TM) system (copyright 1986, Carnegie Mellon
 University), and the Gaussian 82(TM) system (copyright 1983,
 Carnegie Mellon University). Gaussian is a federally registered
 trademark of Gaussian, Inc.
  
 This software contains proprietary and confidential information,
 including trade secrets, belonging to Gaussian, Inc.
  
 This software is provided under written license and may be
 used, copied, transmitted, or stored only in accord with that
 written license.
  
 The following legend is applicable only to US Government
 contracts under FAR:
  
                    RESTRICTED RIGHTS LEGEND
  
 Use, reproduction and disclosure by the US Government is
 subject to restrictions as set forth in subparagraphs (a)
 and (c) of the Commercial Computer Software - Restricted
 Rights clause in FAR 52.227-19.
  
 Gaussian, Inc.
 340 Quinnipiac St., Bldg. 40, Wallingford CT 06492
  
  
 ---------------------------------------------------------------
 Warning -- This program may not be used in any manner that
 competes with the business of Gaussian, Inc. or will provide
 assistance to any competitor of Gaussian, Inc.  The licensee
 of this program is prohibited from giving any competitor of
 Gaussian, Inc. access to this program.  By using this program,
 the user acknowledges that Gaussian, Inc. is engaged in the
 business of creating and licensing software in the field of
 computational chemistry and represents and warrants to the
 licensee that it is not a competitor of Gaussian, Inc. and that
 it will not use this program in any manner prohibited above.
 ---------------------------------------------------------------
  

 Cite this work as:
 Gaussian 16, Revision A.03,
 M. J. Frisch, G. W. Trucks, H. B. Schlegel, G. E. Scuseria, 
 M. A. Robb, J. R. Cheeseman, G. Scalmani, V. Barone, 
 G. A. Petersson, H. Nakatsuji, X. Li, M. Caricato, A. V. Marenich, 
 J. Bloino, B. G. Janesko, R. Gomperts, B. Mennucci, H. P. Hratchian, 
 J. V. Ortiz, A. F. Izmaylov, J. L. Sonnenberg, D. Williams-Young, 
 F. Ding, F. Lipparini, F. Egidi, J. Goings, B. Peng, A. Petrone, 
 T. Henderson, D. Ranasinghe, V. G. Zakrzewski, J. Gao, N. Rega, 
 G. Zheng, W. Liang, M. Hada, M. Ehara, K. Toyota, R. Fukuda, 
 J. Hasegawa, M. Ishida, T. Nakajima, Y. Honda, O. Kitao, H. Nakai, 
 T. Vreven, K. Throssell, J. A. Montgomery, Jr., J. E. Peralta, 
 F. Ogliaro, M. J. Bearpark, J. J. Heyd, E. N. Brothers, K. N. Kudin, 
 V. N. Staroverov, T. A. Keith, R. Kobayashi, J. Normand, 
 K. Raghavachari, A. P. Rendell, J. C. Burant, S. S. Iyengar, 
 J. Tomasi, M. Cossi, J. M. Millam, M. Klene, C. Adamo, R. Cammi, 
 J. W. Ochterski, R. L. Martin, K. Morokuma, O. Farkas, 
 J. B. Foresman, and D. J. Fox, Gaussian, Inc., Wallingford CT, 2016.
 
 ******************************************
 Gaussian 16:  EM64W-G16RevA.03 17-Dec-2016
                21-Mar-2023 
 ******************************************
 %nprocshared=16
 Will use up to   16 processors via shared memory.
 %mem=150MW
 %chk=C:\Users\Administrator\Desktop\dataset_dft\C8H6O3\C8H6O3.chk
 --------------------------------
 # scan b3lyp/6-31++g(d,p) nosymm
 --------------------------------
 1/38=1,60=1,172=1/1,8;
 2/12=2,15=1,17=6,18=5,29=3,40=1/2;
 3/5=1,6=6,7=1111,11=2,25=1,30=1,74=-5/1,2,3;
 4//1;
 5/5=2,38=5/2;
 6/7=2,8=2,9=2,10=2,18=1,28=1/1;
 1/60=1/8(1);
 99/9=1/99;
 2/15=1,29=3/2;
 3/5=1,6=6,7=1111,11=2,25=1,30=1,74=-5/1,2,3;
 4/5=5,16=3,69=1/1;
 5/5=2,38=5/2;
 1/60=1/8(-4);
 99/9=1/99;
 -------------------
 Title Card Required
 -------------------
 Symbolic Z-matrix:
 Charge =  0 Multiplicity = 1
 C(PDBName=C,ResName=MOL,ResNum=1)
 C(PDBName=C,ResName=MOL,ResNum=1) 1    B1
 C(PDBName=C,ResName=MOL,ResNum=1) 2    B2       1    A1
 C(PDBName=C,ResName=MOL,ResNum=1) 3    B3       2    A2       1    D1       0
 C(PDBName=C,ResName=MOL,ResNum=1) 4    B4       3    A3       2    D2       0
 C(PDBName=C,ResName=MOL,ResNum=1) 5    B5       4    A4       3    D3       0
 H(PDBName=H,ResName=MOL,ResNum=1) 3    B6       2    A5       1    D4       0
 H(PDBName=H,ResName=MOL,ResNum=1) 4    B7       3    A6       2    D5       0
 H(PDBName=H,ResName=MOL,ResNum=1) 5    B8       4    A7       3    D6       0
 C(PDBName=C,ResName=MOL,ResNum=1) 6    B9       5    A8       4    D7       0
 H(PDBName=H,ResName=MOL,ResNum=1) 10   B10      6    A9       5    D8       0
 O(PDBName=O,ResName=MOL,ResNum=1) 10   B11      6    A10      5    D9       0
 C(PDBName=C,ResName=MOL,ResNum=1) 1    B12      2    A11      3    D10      0
 O(PDBName=O,ResName=MOL,ResNum=1) 13   B13      1    A12      2    D11      0
 H(PDBName=H,ResName=MOL,ResNum=1) 13   B14      1    A13      2    D12      0
 O(PDBName=O,ResName=MOL,ResNum=1) 2    B15      1    A14      6    D13      0
 H(PDBName=H,ResName=MOL,ResNum=1) 16   B16      2    A15      1    D14      0
       Variables:
  B1                    1.41641                  
  B2                    1.40184                  
  B3                    1.38781                  
  B4                    1.39983                  
  B5                    1.39322                  
  B6                    1.08476                  
  B7                    1.08584                  
  B8                    1.08429                  
  B9                    1.50117                  
  B10                   1.09924                  
  B11                   1.21883                  
  B12                   1.47258                  
  B13                   1.22018                  
  B14                   1.11368                  
  B15                   1.36399                  
  B16                   0.5    Scan 20    0.1    
  A1                  120.70717                  
  A2                  119.97852                  
  A3                  120.49469                  
  A4                  120.35814                  
  A5                  118.26997                  
  A6                  119.56241                  
  A7                  121.25035                  
  A8                  116.67023                  
  A9                  117.10294                  
  A10                 121.97992                  
  A11                 119.5188                   
  A12                 126.19501                  
  A13                 115.90757                  
  A14                 124.48956                  
  A15                 112.21443                  
  D1                    0.20052                  
  D2                   -0.48168                  
  D3                    0.18979                  
  D4                  179.51916                  
  D5                  179.72238                  
  D6                 -178.84449                  
  D7                 -175.43231                  
  D8                  156.54727                  
  D9                  -21.1966                   
  D10                -178.10749                  
  D11                 163.53528                  
  D12                 -16.9541                   
  D13                 178.79889                  
  D14                  -0.87254                  
 
 Center=      0.70305873     -0.01431169      0.16643635
 Residue   1 PDB Number     1_0 MOL charge    0.00000000 layers R        AvRTP=      0.00000000      0.00000000      0.00000000
 Scan the potential surface.
 Variable   Value     No. Steps Step-Size
 -------- ----------- --------- ---------
    16       0.500000      20      0.1000
 A total of     21 points will be computed.
 ---------------------------------------------------------------------------------------------------
                            Z-MATRIX (ANGSTROMS AND DEGREES)
   CD    Cent   Atom    N1       Length/X        N2       Alpha/Y        N3        Beta/Z          J
 ---------------------------------------------------------------------------------------------------
      1      1  C 
      2      2  C        1   1.416405(     1)
      3      3  C        2   1.401843(     2)      1  120.707(    17)
      4      4  C        3   1.387814(     3)      2  119.979(    18)      1    0.201(    32)      0
      5      5  C        4   1.399832(     4)      3  120.495(    19)      2   -0.482(    33)      0
      6      6  C        5   1.393225(     5)      4  120.358(    20)      3    0.190(    34)      0
      7      7  H        3   1.084756(     6)      2  118.270(    21)      1  179.519(    35)      0
      8      8  H        4   1.085840(     7)      3  119.562(    22)      2  179.722(    36)      0
      9      9  H        5   1.084290(     8)      4  121.250(    23)      3 -178.844(    37)      0
     10     10  C        6   1.501171(     9)      5  116.670(    24)      4 -175.432(    38)      0
     11     11  H       10   1.099244(    10)      6  117.103(    25)      5  156.547(    39)      0
     12     12  O       10   1.218834(    11)      6  121.980(    26)      5  -21.197(    40)      0
     13     13  C        1   1.472578(    12)      2  119.519(    27)      3 -178.107(    41)      0
     14     14  O       13   1.220178(    13)      1  126.195(    28)      2  163.535(    42)      0
     15     15  H       13   1.113681(    14)      1  115.908(    29)      2  -16.954(    43)      0
     16     16  O        2   1.363991(    15)      1  124.490(    30)      6  178.799(    44)      0
     17     17  H       16   0.500000(    16)      2  112.214(    31)      1   -0.873(    45)      0
 ---------------------------------------------------------------------------------------------------
                         Z-Matrix orientation:                         
 ---------------------------------------------------------------------
 Center     Atomic      Atomic             Coordinates (Angstroms)
 Number     Number       Type             X           Y           Z
 ---------------------------------------------------------------------
      1          6           0        0.000000    0.000000    0.000000
      2          6           0        0.000000    0.000000    1.416405
      3          6           0        1.205288    0.000000    2.132257
      4          6           0        2.415384    0.004207    1.452790
      5          6           0        2.444256   -0.001670    0.053268
      6          6           0        1.256849   -0.007847   -0.675499
      7          1           0        1.159177    0.008018    3.216003
      8          1           0        3.344911    0.008756    2.014044
      9          1           0        3.382535   -0.017173   -0.489941
     10          6           0        1.382332   -0.120696   -2.167154
     11          1           0        0.515109   -0.517038   -2.714123
     12          8           0        2.410696    0.171714   -2.752405
     13          6           0       -1.280730    0.042319   -0.725552
     14          8           0       -1.433175    0.326596   -1.902319
     15          1           0       -2.185439   -0.220064   -0.131464
     16          8           0       -1.123825    0.030583    2.188773
     17          1           0       -1.541371    0.048997    1.914335
 ---------------------------------------------------------------------
                    Distance matrix (angstroms):
                    1          2          3          4          5
     1  C    0.000000
     2  C    1.416405   0.000000
     3  C    2.449335   1.401843   0.000000
     4  C    2.818634   2.415662   1.387814   0.000000
     5  C    2.444837   2.798667   2.420174   1.399832   0.000000
     6  C    1.426895   2.440449   2.808240   2.423213   1.393225
     7  H    3.418542   2.140632   1.084756   2.164947   3.413857
     8  H    3.904469   3.397894   2.142905   1.085840   2.157760
     9  H    3.417877   3.882782   3.408317   2.170263   1.084290
    10  C    2.573318   3.842825   4.304747   3.766535   2.464168
    11  H    2.810539   4.194512   4.922507   4.609327   3.412574
    12  O    3.662878   4.818706   5.034126   4.208532   2.811226
    13  C    1.472578   2.496005   3.788027   4.290441   3.805787
    14  O    2.404054   3.629682   4.831766   5.115868   4.355061
    15  H    2.200421   2.687093   4.082877   4.871112   4.638523
    16  O    2.460619   1.363991   2.329999   3.615020   4.158441
    17  H    2.458232   1.620543   2.755726   3.983835   4.399019
                    6          7          8          9         10
     6  C    0.000000
     7  H    3.892760   0.000000
     8  H    3.404985   2.494423   0.000000
     9  H    2.133791   4.321803   2.504402   0.000000
    10  C    1.501171   5.389317   4.620702   2.612388   0.000000
    11  H    2.228327   5.988063   5.535323   3.663193   1.099244
    12  O    2.382676   6.100409   4.859871   2.469594   1.218834
    13  C    2.538568   4.635750   5.376157   4.669592   3.032603
    14  O    2.975428   5.746217   6.186197   5.030314   2.863091
    15  H    3.491468   4.737511   5.936357   5.583189   4.108880
    16  O    3.724666   2.503559   4.472205   5.242621   5.027704
    17  H    3.813202   2.998162   4.887465   5.479943   5.023483
                   11         12         13         14         15
    11  H    0.000000
    12  O    2.017199   0.000000
    13  C    2.737212   4.213253   0.000000
    14  O    2.273006   3.939794   1.220178   0.000000
    15  H    3.748503   5.305401   1.113681   2.000167   0.000000
    16  O    5.198498   6.076842   2.918570   4.113437   2.563854
    17  H    5.096286   6.116564   2.652732   3.828266   2.161599
                   16         17
    16  O    0.000000
    17  H    0.500000   0.000000
 Symmetry turned off by external request.
 Stoichiometry    C8H6O3
 Framework group  C1[X(C8H6O3)]
 Deg. of freedom    45
 Full point group                 C1      NOp   1
 Rotational constants (GHZ):           1.5426874           1.0732144           0.6358979
 Standard basis: 6-31++G(d,p) (6D, 7F)
   245 basis functions,   400 primitive gaussians,   245 cartesian basis functions
    39 alpha electrons       39 beta electrons
       nuclear repulsion energy       565.7196946426 Hartrees.
 NAtoms=   17 NActive=   17 NUniq=   17 SFac= 1.00D+00 NAtFMM=   60 NAOKFM=F Big=F
 Integral buffers will be    131072 words long.
 Raffenetti 2 integral format.
 Two-electron integral symmetry is turned off.
 One-electron integrals computed using PRISM.
 NBasis=   245 RedAO= T EigKep=  2.10D-06  NBF=   245
 NBsUse=   244 1.00D-06 EigRej=  4.79D-07 NBFU=   244
 ExpMin= 3.60D-02 ExpMax= 5.48D+03 ExpMxC= 8.25D+02 IAcc=3 IRadAn=         5 AccDes= 0.00D+00
 Harris functional with IExCor=  402 and IRadAn=       5 diagonalized for initial guess.
 HarFok:  IExCor=  402 AccDes= 0.00D+00 IRadAn=         5 IDoV= 1 UseB2=F ITyADJ=14
 ICtDFT=  3500011 ScaDFX=  1.000000  1.000000  1.000000  1.000000
 FoFCou: FMM=F IPFlag=           0 FMFlag=      100000 FMFlg1=           0
         NFxFlg=           0 DoJE=T BraDBF=F KetDBF=T FulRan=T
         wScrn=  0.000000 ICntrl=       500 IOpCl=  0 I1Cent=   200000004 NGrid=           0
         NMat0=    1 NMatS0=      1 NMatT0=    0 NMatD0=    1 NMtDS0=    0 NMtDT0=    0
 Symmetry not used in FoFCou.
 Requested convergence on RMS density matrix=1.00D-08 within 128 cycles.
 Requested convergence on MAX density matrix=1.00D-06.
 Requested convergence on             energy=1.00D-06.
 No special actions if energy rises.
 SCF Done:  E(RB3LYP) =  -533.342596488     A.U. after   15 cycles
            NFock= 15  Conv=0.74D-08     -V/T= 2.0037

 **********************************************************************

            Population analysis using the SCF density.

 **********************************************************************

 Alpha  occ. eigenvalues --  -19.21523 -19.18205 -19.16717 -10.31146 -10.30818
 Alpha  occ. eigenvalues --  -10.29136 -10.24744 -10.24227 -10.23768 -10.23190
 Alpha  occ. eigenvalues --  -10.22642  -1.27293  -1.07561  -1.05923  -0.90753
 Alpha  occ. eigenvalues --   -0.81945  -0.80862  -0.72776  -0.68530  -0.65018
 Alpha  occ. eigenvalues --   -0.60317  -0.57653  -0.53286  -0.52880  -0.48515
 Alpha  occ. eigenvalues --   -0.48298  -0.46970  -0.46112  -0.45487  -0.43920
 Alpha  occ. eigenvalues --   -0.42392  -0.41028  -0.40398  -0.39790  -0.37203
 Alpha  occ. eigenvalues --   -0.29838  -0.29327  -0.27386  -0.26783
 Alpha virt. eigenvalues --   -0.10954  -0.06807  -0.01585  -0.00834  -0.00666
 Alpha virt. eigenvalues --    0.00354   0.01468   0.02360   0.03006   0.03967
 Alpha virt. eigenvalues --    0.04437   0.05400   0.06262   0.07038   0.07731
 Alpha virt. eigenvalues --    0.08875   0.08968   0.10165   0.10645   0.10865
 Alpha virt. eigenvalues --    0.11078   0.11435   0.11989   0.12217   0.12742
 Alpha virt. eigenvalues --    0.13573   0.14179   0.14659   0.14867   0.16248
 Alpha virt. eigenvalues --    0.16632   0.16890   0.17424   0.18037   0.18785
 Alpha virt. eigenvalues --    0.19899   0.20354   0.21229   0.22219   0.22752
 Alpha virt. eigenvalues --    0.23468   0.24383   0.24782   0.25414   0.25747
 Alpha virt. eigenvalues --    0.25976   0.26767   0.27471   0.27726   0.29143
 Alpha virt. eigenvalues --    0.29300   0.30136   0.30773   0.31526   0.32100
 Alpha virt. eigenvalues --    0.32376   0.33249   0.34097   0.36083   0.37053
 Alpha virt. eigenvalues --    0.37302   0.37650   0.38793   0.39807   0.40321
 Alpha virt. eigenvalues --    0.42723   0.46833   0.47668   0.53745   0.58620
 Alpha virt. eigenvalues --    0.59236   0.63730   0.64925   0.67127   0.68126
 Alpha virt. eigenvalues --    0.70162   0.70566   0.71335   0.72635   0.73161
 Alpha virt. eigenvalues --    0.73690   0.74814   0.75938   0.77941   0.82193
 Alpha virt. eigenvalues --    0.82885   0.85095   0.86253   0.90821   0.92092
 Alpha virt. eigenvalues --    0.96244   0.98276   1.00135   1.03127   1.06710
 Alpha virt. eigenvalues --    1.07605   1.08730   1.10529   1.12594   1.13466
 Alpha virt. eigenvalues --    1.15356   1.17827   1.18677   1.19262   1.20939
 Alpha virt. eigenvalues --    1.22062   1.23329   1.25035   1.26971   1.27986
 Alpha virt. eigenvalues --    1.29337   1.31073   1.32083   1.32533   1.34319
 Alpha virt. eigenvalues --    1.35386   1.36553   1.37182   1.38629   1.41676
 Alpha virt. eigenvalues --    1.44713   1.47854   1.48843   1.52234   1.61853
 Alpha virt. eigenvalues --    1.63293   1.66115   1.67633   1.69788   1.72295
 Alpha virt. eigenvalues --    1.72971   1.74888   1.75907   1.79337   1.81651
 Alpha virt. eigenvalues --    1.82470   1.85257   1.85930   1.88699   1.89572
 Alpha virt. eigenvalues --    1.90167   1.95389   1.96472   1.96797   2.00637
 Alpha virt. eigenvalues --    2.01993   2.02329   2.03466   2.10724   2.14500
 Alpha virt. eigenvalues --    2.17778   2.20738   2.24270   2.25271   2.26667
 Alpha virt. eigenvalues --    2.28621   2.32751   2.33479   2.37771   2.39958
 Alpha virt. eigenvalues --    2.43104   2.43759   2.45924   2.50524   2.51532
 Alpha virt. eigenvalues --    2.53573   2.56030   2.57892   2.60279   2.61085
 Alpha virt. eigenvalues --    2.64699   2.65917   2.70247   2.71285   2.74380
 Alpha virt. eigenvalues --    2.82478   2.91532   2.93232   2.97316   3.03565
 Alpha virt. eigenvalues --    3.04631   3.10831   3.13621   3.19265   3.23931
 Alpha virt. eigenvalues --    3.28020   3.30984   3.37705   3.40596   3.44759
 Alpha virt. eigenvalues --    3.48501   3.74488   3.81082   4.18395   4.20375
 Alpha virt. eigenvalues --    4.26080   4.27292   4.30061   4.43533   4.44664
 Alpha virt. eigenvalues --    4.49806   4.55419   4.58482   4.86174   7.91942
          Condensed to atoms (all electrons):
               1          2          3          4          5          6
     1  C   15.599020   0.246611  -4.603793   1.702259  -3.340634  -4.210349
     2  C    0.246611  10.868132  -0.838442   0.316186  -0.363175  -4.460876
     3  C   -4.603793  -0.838442  11.199810  -1.013684   0.111943   1.627612
     4  C    1.702259   0.316186  -1.013684   6.959759  -0.817754  -1.555535
     5  C   -3.340634  -0.363175   0.111943  -0.817754   8.989023   2.415173
     6  C   -4.210349  -4.460876   1.627612  -1.555535   2.415173  14.603685
     7  H   -0.091708  -0.144199   0.536373  -0.141298   0.039130   0.116758
     8  H    0.057677   0.021013  -0.122218   0.404332  -0.043847  -0.022561
     9  H    0.152441   0.047329  -0.037434  -0.024740   0.214034   0.008307
    10  C    0.312890   0.057158   0.741504  -0.457116  -0.920382  -0.901690
    11  H    0.127422   0.000111  -0.004872   0.019036  -0.010332  -0.288208
    12  O    0.020933  -0.004772  -0.003995   0.116966  -0.024099  -0.246269
    13  C    0.311321   1.015379  -1.366547   0.640703  -0.346671  -2.017605
    14  O   -0.042233   0.123730   0.048769  -0.012092  -0.088002  -0.265243
    15  H   -0.184181   0.002509  -0.023328   0.006048  -0.031696  -0.019451
    16  O    0.614054  -0.476933  -0.574801   0.018534   0.059940   0.301613
    17  H   -0.200208   0.474707  -0.130398   0.001055  -0.007664  -0.160112
               7          8          9         10         11         12
     1  C   -0.091708   0.057677   0.152441   0.312890   0.127422   0.020933
     2  C   -0.144199   0.021013   0.047329   0.057158   0.000111  -0.004772
     3  C    0.536373  -0.122218  -0.037434   0.741504  -0.004872  -0.003995
     4  C   -0.141298   0.404332  -0.024740  -0.457116   0.019036   0.116966
     5  C    0.039130  -0.043847   0.214034  -0.920382  -0.010332  -0.024099
     6  C    0.116758  -0.022561   0.008307  -0.901690  -0.288208  -0.246269
     7  H    0.594850  -0.017288  -0.003165   0.018156   0.000191  -0.000090
     8  H   -0.017288   0.600687  -0.007913  -0.014389   0.000345   0.002097
     9  H   -0.003165  -0.007913   0.568872  -0.073600   0.005669  -0.004739
    10  C    0.018156  -0.014389  -0.073600   6.940305   0.399194   0.404734
    11  H    0.000191   0.000345   0.005669   0.399194   0.666878  -0.061600
    12  O   -0.000090   0.002097  -0.004739   0.404734  -0.061600   8.116400
    13  C   -0.038945   0.013636   0.001112  -0.804636  -0.001027   0.033075
    14  O    0.000506  -0.000205  -0.001176   0.096957  -0.021180   0.000247
    15  H    0.000569  -0.000144  -0.000478   0.017289   0.004981   0.000383
    16  O   -0.015372  -0.001528   0.000313  -0.001100   0.000290   0.000090
    17  H   -0.009423  -0.000029   0.000254  -0.005017  -0.000700  -0.000104
              13         14         15         16         17
     1  C    0.311321  -0.042233  -0.184181   0.614054  -0.200208
     2  C    1.015379   0.123730   0.002509  -0.476933   0.474707
     3  C   -1.366547   0.048769  -0.023328  -0.574801  -0.130398
     4  C    0.640703  -0.012092   0.006048   0.018534   0.001055
     5  C   -0.346671  -0.088002  -0.031696   0.059940  -0.007664
     6  C   -2.017605  -0.265243  -0.019451   0.301613  -0.160112
     7  H   -0.038945   0.000506   0.000569  -0.015372  -0.009423
     8  H    0.013636  -0.000205  -0.000144  -0.001528  -0.000029
     9  H    0.001112  -0.001176  -0.000478   0.000313   0.000254
    10  C   -0.804636   0.096957   0.017289  -0.001100  -0.005017
    11  H   -0.001027  -0.021180   0.004981   0.000290  -0.000700
    12  O    0.033075   0.000247   0.000383   0.000090  -0.000104
    13  C    8.087834   0.372897   0.404920  -0.130016   0.155068
    14  O    0.372897   8.199813  -0.048688   0.000097  -0.001121
    15  H    0.404920  -0.048688   0.787794   0.009767  -0.009044
    16  O   -0.130016   0.000097   0.009767   8.340841  -0.086504
    17  H    0.155068  -0.001121  -0.009044  -0.086504   0.928239
 Mulliken charges:
               1
     1  C   -0.471523
     2  C   -0.884468
     3  C    0.453500
     4  C   -0.162660
     5  C    0.165012
     6  C    1.074749
     7  H    0.154957
     8  H    0.130334
     9  H    0.154914
    10  C    0.189745
    11  H    0.163802
    12  O   -0.349257
    13  C   -0.330499
    14  O   -0.363076
    15  H    0.082751
    16  O   -0.059285
    17  H    0.051002
 Sum of Mulliken charges =   0.00000
 Mulliken charges with hydrogens summed into heavy atoms:
               1
     1  C   -0.471523
     2  C   -0.884468
     3  C    0.608457
     4  C   -0.032325
     5  C    0.319926
     6  C    1.074749
    10  C    0.353546
    12  O   -0.349257
    13  C   -0.247747
    14  O   -0.363076
    16  O   -0.008283
 Electronic spatial extent (au):  <R**2>=           1776.6326
 Charge=              0.0000 electrons
 Dipole moment (field-independent basis, Debye):
    X=             -0.4216    Y=             -1.1071    Z=              4.3427  Tot=              4.5014
 Quadrupole moment (field-independent basis, Debye-Ang):
   XX=            -62.1394   YY=            -63.9712   ZZ=            -73.6127
   XY=             -0.3807   XZ=              7.3925   YZ=              3.1132
 Traceless Quadrupole moment (field-independent basis, Debye-Ang):
   XX=              4.4350   YY=              2.6033   ZZ=             -7.0383
   XY=             -0.3807   XZ=              7.3925   YZ=              3.1132
 Octapole moment (field-independent basis, Debye-Ang**2):
  XXX=           -126.5604  YYY=             -5.5992  ZZZ=             50.1832  XYY=            -45.6559
  XXY=             -6.1459  XXZ=             45.6551  XZZ=            -46.2553  YZZ=             -8.9513
  YYZ=              0.8767  XYZ=              1.2960
 Hexadecapole moment (field-independent basis, Debye-Ang**3):
 XXXX=          -1020.6961 YYYY=            -74.7664 ZZZZ=          -1230.8543 XXXY=             -1.2854
 XXXZ=            111.6873 YYYX=              4.1025 YYYZ=             10.5629 ZZZX=            146.2420
 ZZZY=             27.5010 XXYY=           -199.9323 XXZZ=           -441.0033 YYZZ=           -207.6301
 XXYZ=             14.8109 YYXZ=              8.7759 ZZXY=             -2.6833
 N-N= 5.657196946426D+02 E-N=-2.376158459469D+03  KE= 5.313680350846D+02
 Variable Step   Value    
 -------- ---- -----------
    16       1    1.133836
 ---------------------------------------------------------------------------------------------------
                            Z-MATRIX (ANGSTROMS AND DEGREES)
   CD    Cent   Atom    N1       Length/X        N2       Alpha/Y        N3        Beta/Z          J
 ---------------------------------------------------------------------------------------------------
      1      1  C 
      2      2  C        1   1.416405(     1)
      3      3  C        2   1.401843(     2)      1  120.707(    17)
      4      4  C        3   1.387814(     3)      2  119.979(    18)      1    0.201(    32)      0
      5      5  C        4   1.399832(     4)      3  120.495(    19)      2   -0.482(    33)      0
      6      6  C        5   1.393225(     5)      4  120.358(    20)      3    0.190(    34)      0
      7      7  H        3   1.084756(     6)      2  118.270(    21)      1  179.519(    35)      0
      8      8  H        4   1.085840(     7)      3  119.562(    22)      2  179.722(    36)      0
      9      9  H        5   1.084290(     8)      4  121.250(    23)      3 -178.844(    37)      0
     10     10  C        6   1.501171(     9)      5  116.670(    24)      4 -175.432(    38)      0
     11     11  H       10   1.099244(    10)      6  117.103(    25)      5  156.547(    39)      0
     12     12  O       10   1.218834(    11)      6  121.980(    26)      5  -21.197(    40)      0
     13     13  C        1   1.472578(    12)      2  119.519(    27)      3 -178.107(    41)      0
     14     14  O       13   1.220178(    13)      1  126.195(    28)      2  163.535(    42)      0
     15     15  H       13   1.113681(    14)      1  115.908(    29)      2  -16.954(    43)      0
     16     16  O        2   1.363991(    15)      1  124.490(    30)      6  178.799(    44)      0
     17     17  H       16   0.600000(    16)      2  112.214(    31)      1   -0.873(    45)      0
 ---------------------------------------------------------------------------------------------------
                         Z-Matrix orientation:                         
 ---------------------------------------------------------------------
 Center     Atomic      Atomic             Coordinates (Angstroms)
 Number     Number       Type             X           Y           Z
 ---------------------------------------------------------------------
      1          6           0        0.000000    0.000000    0.000000
      2          6           0        0.000000    0.000000    1.416405
      3          6           0        1.205288    0.000000    2.132257
      4          6           0        2.415384    0.004207    1.452790
      5          6           0        2.444256   -0.001670    0.053268
      6          6           0        1.256849   -0.007847   -0.675499
      7          1           0        1.159177    0.008018    3.216003
      8          1           0        3.344911    0.008756    2.014044
      9          1           0        3.382535   -0.017173   -0.489941
     10          6           0        1.382332   -0.120696   -2.167154
     11          1           0        0.515109   -0.517038   -2.714123
     12          8           0        2.410696    0.171714   -2.752405
     13          6           0       -1.280730    0.042319   -0.725552
     14          8           0       -1.433175    0.326596   -1.902319
     15          1           0       -2.185439   -0.220064   -0.131464
     16          8           0       -1.123825    0.030583    2.188773
     17          1           0       -1.624880    0.052680    1.859448
 ---------------------------------------------------------------------
                    Distance matrix (angstroms):
                    1          2          3          4          5
     1  C    0.000000
     2  C    1.416405   0.000000
     3  C    2.449335   1.401843   0.000000
     4  C    2.818634   2.415662   1.387814   0.000000
     5  C    2.444837   2.798667   2.420174   1.399832   0.000000
     6  C    1.426895   2.440449   2.808240   2.423213   1.393225
     7  H    3.418542   2.140632   1.084756   2.164947   3.413857
     8  H    3.904469   3.397894   2.142905   1.085840   2.157760
     9  H    3.417877   3.882782   3.408317   2.170263   1.084290
    10  C    2.573318   3.842825   4.304747   3.766535   2.464168
    11  H    2.810539   4.194512   4.922507   4.609327   3.412574
    12  O    3.662878   4.818706   5.034126   4.208532   2.811226
    13  C    1.472578   2.496005   3.788027   4.290441   3.805787
    14  O    2.404054   3.629682   4.831766   5.115868   4.355061
    15  H    2.200421   2.687093   4.082877   4.871112   4.638523
    16  O    2.460619   1.363991   2.329999   3.615020   4.158441
    17  H    2.469931   1.685022   2.843774   4.060968   4.452315
                    6          7          8          9         10
     6  C    0.000000
     7  H    3.892760   0.000000
     8  H    3.404985   2.494423   0.000000
     9  H    2.133791   4.321803   2.504402   0.000000
    10  C    1.501171   5.389317   4.620702   2.612388   0.000000
    11  H    2.228327   5.988063   5.535323   3.663193   1.099244
    12  O    2.382676   6.100409   4.859871   2.469594   1.218834
    13  C    2.538568   4.635750   5.376157   4.669592   3.032603
    14  O    2.975428   5.746217   6.186197   5.030314   2.863091
    15  H    3.491468   4.737511   5.936357   5.583189   4.108880
    16  O    3.724666   2.503559   4.472205   5.242621   5.027704
    17  H    3.838487   3.097291   4.972390   5.531611   5.028608
                   11         12         13         14         15
    11  H    0.000000
    12  O    2.017199   0.000000
    13  C    2.737212   4.213253   0.000000
    14  O    2.273006   3.939794   1.220178   0.000000
    15  H    3.748503   5.305401   1.113681   2.000167   0.000000
    16  O    5.198498   6.076842   2.918570   4.113437   2.563854
    17  H    5.081504   6.129375   2.607829   3.776595   2.086227
                   16         17
    16  O    0.000000
    17  H    0.600000   0.000000
 Symmetry turned off by external request.
 Stoichiometry    C8H6O3
 Framework group  C1[X(C8H6O3)]
 Deg. of freedom    45
 Full point group                 C1      NOp   1
 Rotational constants (GHZ):           1.5414286           1.0734886           0.6357802
 Standard basis: 6-31++G(d,p) (6D, 7F)
   245 basis functions,   400 primitive gaussians,   245 cartesian basis functions
    39 alpha electrons       39 beta electrons
       nuclear repulsion energy       564.1969243458 Hartrees.
 NAtoms=   17 NActive=   17 NUniq=   17 SFac= 1.00D+00 NAtFMM=   60 NAOKFM=F Big=F
 Integral buffers will be    131072 words long.
 Raffenetti 2 integral format.
 Two-electron integral symmetry is turned off.
 One-electron integrals computed using PRISM.
 NBasis=   245 RedAO= T EigKep=  2.09D-06  NBF=   245
 NBsUse=   244 1.00D-06 EigRej=  4.91D-07 NBFU=   244
 Initial guess from the checkpoint file:  "C:\Users\Administrator\Desktop\dataset_dft\C8H6O3\C8H6O3.chk"
 B after Tr=    -0.002138    0.000114   -0.002112
         Rot=    1.000000    0.000010    0.000337    0.000009 Ang=   0.04 deg.
 ExpMin= 3.60D-02 ExpMax= 5.48D+03 ExpMxC= 8.25D+02 IAcc=3 IRadAn=         5 AccDes= 0.00D+00
 Harris functional with IExCor=  402 and IRadAn=       5 diagonalized for initial guess.
 HarFok:  IExCor=  402 AccDes= 0.00D+00 IRadAn=         5 IDoV= 1 UseB2=F ITyADJ=14
 ICtDFT=  3500011 ScaDFX=  1.000000  1.000000  1.000000  1.000000
 FoFCou: FMM=F IPFlag=           0 FMFlag=      100000 FMFlg1=           0
         NFxFlg=           0 DoJE=T BraDBF=F KetDBF=T FulRan=T
         wScrn=  0.000000 ICntrl=       500 IOpCl=  0 I1Cent=   200000004 NGrid=           0
         NMat0=    1 NMatS0=      1 NMatT0=    0 NMatD0=    1 NMtDS0=    0 NMtDT0=    0
 Symmetry not used in FoFCou.
 Requested convergence on RMS density matrix=1.00D-08 within 128 cycles.
 Requested convergence on MAX density matrix=1.00D-06.
 Requested convergence on             energy=1.00D-06.
 No special actions if energy rises.
 SCF Done:  E(RB3LYP) =  -533.791830901     A.U. after   13 cycles
            NFock= 13  Conv=0.50D-08     -V/T= 2.0061
 Variable Step   Value    
 -------- ---- -----------
    16       2    1.322808
 ---------------------------------------------------------------------------------------------------
                            Z-MATRIX (ANGSTROMS AND DEGREES)
   CD    Cent   Atom    N1       Length/X        N2       Alpha/Y        N3        Beta/Z          J
 ---------------------------------------------------------------------------------------------------
      1      1  C 
      2      2  C        1   1.416405(     1)
      3      3  C        2   1.401843(     2)      1  120.707(    17)
      4      4  C        3   1.387814(     3)      2  119.979(    18)      1    0.201(    32)      0
      5      5  C        4   1.399832(     4)      3  120.495(    19)      2   -0.482(    33)      0
      6      6  C        5   1.393225(     5)      4  120.358(    20)      3    0.190(    34)      0
      7      7  H        3   1.084756(     6)      2  118.270(    21)      1  179.519(    35)      0
      8      8  H        4   1.085840(     7)      3  119.562(    22)      2  179.722(    36)      0
      9      9  H        5   1.084290(     8)      4  121.250(    23)      3 -178.844(    37)      0
     10     10  C        6   1.501171(     9)      5  116.670(    24)      4 -175.432(    38)      0
     11     11  H       10   1.099244(    10)      6  117.103(    25)      5  156.547(    39)      0
     12     12  O       10   1.218834(    11)      6  121.980(    26)      5  -21.197(    40)      0
     13     13  C        1   1.472578(    12)      2  119.519(    27)      3 -178.107(    41)      0
     14     14  O       13   1.220178(    13)      1  126.195(    28)      2  163.535(    42)      0
     15     15  H       13   1.113681(    14)      1  115.908(    29)      2  -16.954(    43)      0
     16     16  O        2   1.363991(    15)      1  124.490(    30)      6  178.799(    44)      0
     17     17  H       16   0.700000(    16)      2  112.214(    31)      1   -0.873(    45)      0
 ---------------------------------------------------------------------------------------------------
                         Z-Matrix orientation:                         
 ---------------------------------------------------------------------
 Center     Atomic      Atomic             Coordinates (Angstroms)
 Number     Number       Type             X           Y           Z
 ---------------------------------------------------------------------
      1          6           0        0.000000    0.000000    0.000000
      2          6           0        0.000000    0.000000    1.416405
      3          6           0        1.205288    0.000000    2.132257
      4          6           0        2.415384    0.004207    1.452790
      5          6           0        2.444256   -0.001670    0.053268
      6          6           0        1.256849   -0.007847   -0.675499
      7          1           0        1.159177    0.008018    3.216003
      8          1           0        3.344911    0.008756    2.014044
      9          1           0        3.382535   -0.017173   -0.489941
     10          6           0        1.382332   -0.120696   -2.167154
     11          1           0        0.515109   -0.517038   -2.714123
     12          8           0        2.410696    0.171714   -2.752405
     13          6           0       -1.280730    0.042319   -0.725552
     14          8           0       -1.433175    0.326596   -1.902319
     15          1           0       -2.185439   -0.220064   -0.131464
     16          8           0       -1.123825    0.030583    2.188773
     17          1           0       -1.708390    0.056363    1.804560
 ---------------------------------------------------------------------
                    Distance matrix (angstroms):
                    1          2          3          4          5
     1  C    0.000000
     2  C    1.416405   0.000000
     3  C    2.449335   1.401843   0.000000
     4  C    2.818634   2.415662   1.387814   0.000000
     5  C    2.444837   2.798667   2.420174   1.399832   0.000000
     6  C    1.426895   2.440449   2.808240   2.423213   1.393225
     7  H    3.418542   2.140632   1.084756   2.164947   3.413857
     8  H    3.904469   3.397894   2.142905   1.085840   2.157760
     9  H    3.417877   3.882782   3.408317   2.170263   1.084290
    10  C    2.573318   3.842825   4.304747   3.766535   2.464168
    11  H    2.810539   4.194512   4.922507   4.609327   3.412574
    12  O    3.662878   4.818706   5.034126   4.208532   2.811226
    13  C    1.472578   2.496005   3.788027   4.290441   3.805787
    14  O    2.404054   3.629682   4.831766   5.115868   4.355061
    15  H    2.200421   2.687093   4.082877   4.871112   4.638523
    16  O    2.460619   1.363991   2.329999   3.615020   4.158441
    17  H    2.485600   1.752836   2.932589   4.139079   4.507201
                    6          7          8          9         10
     6  C    0.000000
     7  H    3.892760   0.000000
     8  H    3.404985   2.494423   0.000000
     9  H    2.133791   4.321803   2.504402   0.000000
    10  C    1.501171   5.389317   4.620702   2.612388   0.000000
    11  H    2.228327   5.988063   5.535323   3.663193   1.099244
    12  O    2.382676   6.100409   4.859871   2.469594   1.218834
    13  C    2.538568   4.635750   5.376157   4.669592   3.032603
    14  O    2.975428   5.746217   6.186197   5.030314   2.863091
    15  H    3.491468   4.737511   5.936357   5.583189   4.108880
    16  O    3.724666   2.503559   4.472205   5.242621   5.027704
    17  H    3.866194   3.196474   5.057865   5.584591   5.035714
                   11         12         13         14         15
    11  H    0.000000
    12  O    2.017199   0.000000
    13  C    2.737212   4.213253   0.000000
    14  O    2.273006   3.939794   1.220178   0.000000
    15  H    3.748503   5.305401   1.113681   2.000167   0.000000
    16  O    5.198498   6.076842   2.918570   4.113437   2.563854
    17  H    5.068652   6.143786   2.566040   3.726892   2.013002
                   16         17
    16  O    0.000000
    17  H    0.700000   0.000000
 Symmetry turned off by external request.
 Stoichiometry    C8H6O3
 Framework group  C1[X(C8H6O3)]
 Deg. of freedom    45
 Full point group                 C1      NOp   1
 Rotational constants (GHZ):           1.5400861           1.0737591           0.6356464
 Standard basis: 6-31++G(d,p) (6D, 7F)
   245 basis functions,   400 primitive gaussians,   245 cartesian basis functions
    39 alpha electrons       39 beta electrons
       nuclear repulsion energy       563.0785331974 Hartrees.
 NAtoms=   17 NActive=   17 NUniq=   17 SFac= 1.00D+00 NAtFMM=   60 NAOKFM=F Big=F
 Integral buffers will be    131072 words long.
 Raffenetti 2 integral format.
 Two-electron integral symmetry is turned off.
 One-electron integrals computed using PRISM.
 NBasis=   245 RedAO= T EigKep=  2.08D-06  NBF=   245
 NBsUse=   244 1.00D-06 EigRej=  5.04D-07 NBFU=   244
 Initial guess from the checkpoint file:  "C:\Users\Administrator\Desktop\dataset_dft\C8H6O3\C8H6O3.chk"
 B after Tr=    -0.002139    0.000114   -0.002110
         Rot=    1.000000    0.000010    0.000336    0.000009 Ang=   0.04 deg.
 ExpMin= 3.60D-02 ExpMax= 5.48D+03 ExpMxC= 8.25D+02 IAcc=3 IRadAn=         5 AccDes= 0.00D+00
 Harris functional with IExCor=  402 and IRadAn=       5 diagonalized for initial guess.
 HarFok:  IExCor=  402 AccDes= 0.00D+00 IRadAn=         5 IDoV= 1 UseB2=F ITyADJ=14
 ICtDFT=  3500011 ScaDFX=  1.000000  1.000000  1.000000  1.000000
 FoFCou: FMM=F IPFlag=           0 FMFlag=      100000 FMFlg1=           0
         NFxFlg=           0 DoJE=T BraDBF=F KetDBF=T FulRan=T
         wScrn=  0.000000 ICntrl=       500 IOpCl=  0 I1Cent=   200000004 NGrid=           0
         NMat0=    1 NMatS0=      1 NMatT0=    0 NMatD0=    1 NMtDS0=    0 NMtDT0=    0
 Symmetry not used in FoFCou.
 Requested convergence on RMS density matrix=1.00D-08 within 128 cycles.
 Requested convergence on MAX density matrix=1.00D-06.
 Requested convergence on             energy=1.00D-06.
 No special actions if energy rises.
 SCF Done:  E(RB3LYP) =  -534.004918968     A.U. after   13 cycles
            NFock= 13  Conv=0.42D-08     -V/T= 2.0076
 Variable Step   Value    
 -------- ---- -----------
    16       3    1.511781
 ---------------------------------------------------------------------------------------------------
                            Z-MATRIX (ANGSTROMS AND DEGREES)
   CD    Cent   Atom    N1       Length/X        N2       Alpha/Y        N3        Beta/Z          J
 ---------------------------------------------------------------------------------------------------
      1      1  C 
      2      2  C        1   1.416405(     1)
      3      3  C        2   1.401843(     2)      1  120.707(    17)
      4      4  C        3   1.387814(     3)      2  119.979(    18)      1    0.201(    32)      0
      5      5  C        4   1.399832(     4)      3  120.495(    19)      2   -0.482(    33)      0
      6      6  C        5   1.393225(     5)      4  120.358(    20)      3    0.190(    34)      0
      7      7  H        3   1.084756(     6)      2  118.270(    21)      1  179.519(    35)      0
      8      8  H        4   1.085840(     7)      3  119.562(    22)      2  179.722(    36)      0
      9      9  H        5   1.084290(     8)      4  121.250(    23)      3 -178.844(    37)      0
     10     10  C        6   1.501171(     9)      5  116.670(    24)      4 -175.432(    38)      0
     11     11  H       10   1.099244(    10)      6  117.103(    25)      5  156.547(    39)      0
     12     12  O       10   1.218834(    11)      6  121.980(    26)      5  -21.197(    40)      0
     13     13  C        1   1.472578(    12)      2  119.519(    27)      3 -178.107(    41)      0
     14     14  O       13   1.220178(    13)      1  126.195(    28)      2  163.535(    42)      0
     15     15  H       13   1.113681(    14)      1  115.908(    29)      2  -16.954(    43)      0
     16     16  O        2   1.363991(    15)      1  124.490(    30)      6  178.799(    44)      0
     17     17  H       16   0.800000(    16)      2  112.214(    31)      1   -0.873(    45)      0
 ---------------------------------------------------------------------------------------------------
                         Z-Matrix orientation:                         
 ---------------------------------------------------------------------
 Center     Atomic      Atomic             Coordinates (Angstroms)
 Number     Number       Type             X           Y           Z
 ---------------------------------------------------------------------
      1          6           0        0.000000    0.000000    0.000000
      2          6           0        0.000000    0.000000    1.416405
      3          6           0        1.205288    0.000000    2.132257
      4          6           0        2.415384    0.004207    1.452790
      5          6           0        2.444256   -0.001670    0.053268
      6          6           0        1.256849   -0.007847   -0.675499
      7          1           0        1.159177    0.008018    3.216003
      8          1           0        3.344911    0.008756    2.014044
      9          1           0        3.382535   -0.017173   -0.489941
     10          6           0        1.382332   -0.120696   -2.167154
     11          1           0        0.515109   -0.517038   -2.714123
     12          8           0        2.410696    0.171714   -2.752405
     13          6           0       -1.280730    0.042319   -0.725552
     14          8           0       -1.433175    0.326596   -1.902319
     15          1           0       -2.185439   -0.220064   -0.131464
     16          8           0       -1.123825    0.030583    2.188773
     17          1           0       -1.791899    0.060046    1.749672
 ---------------------------------------------------------------------
                    Distance matrix (angstroms):
                    1          2          3          4          5
     1  C    0.000000
     2  C    1.416405   0.000000
     3  C    2.449335   1.401843   0.000000
     4  C    2.818634   2.415662   1.387814   0.000000
     5  C    2.444837   2.798667   2.420174   1.399832   0.000000
     6  C    1.426895   2.440449   2.808240   2.423213   1.393225
     7  H    3.418542   2.140632   1.084756   2.164947   3.413857
     8  H    3.904469   3.397894   2.142905   1.085840   2.157760
     9  H    3.417877   3.882782   3.408317   2.170263   1.084290
    10  C    2.573318   3.842825   4.304747   3.766535   2.464168
    11  H    2.810539   4.194512   4.922507   4.609327   3.412574
    12  O    3.662878   4.818706   5.034126   4.208532   2.811226
    13  C    1.472578   2.496005   3.788027   4.290441   3.805787
    14  O    2.404054   3.629682   4.831766   5.115868   4.355061
    15  H    2.200421   2.687093   4.082877   4.871112   4.638523
    16  O    2.460619   1.363991   2.329999   3.615020   4.158441
    17  H    2.505167   1.823615   3.022103   4.218114   4.563618
                    6          7          8          9         10
     6  C    0.000000
     7  H    3.892760   0.000000
     8  H    3.404985   2.494423   0.000000
     9  H    2.133791   4.321803   2.504402   0.000000
    10  C    1.501171   5.389317   4.620702   2.612388   0.000000
    11  H    2.228327   5.988063   5.535323   3.663193   1.099244
    12  O    2.382676   6.100409   4.859871   2.469594   1.218834
    13  C    2.538568   4.635750   5.376157   4.669592   3.032603
    14  O    2.975428   5.746217   6.186197   5.030314   2.863091
    15  H    3.491468   4.737511   5.936357   5.583189   4.108880
    16  O    3.724666   2.503559   4.472205   5.242621   5.027704
    17  H    3.896271   3.295706   5.143864   5.638847   5.044793
                   11         12         13         14         15
    11  H    0.000000
    12  O    2.017199   0.000000
    13  C    2.737212   4.213253   0.000000
    14  O    2.273006   3.939794   1.220178   0.000000
    15  H    3.748503   5.305401   1.113681   2.000167   0.000000
    16  O    5.198498   6.076842   2.918570   4.113437   2.563854
    17  H    5.057744   6.159787   2.527518   3.679236   1.942166
                   16         17
    16  O    0.000000
    17  H    0.800000   0.000000
 Symmetry turned off by external request.
 Stoichiometry    C8H6O3
 Framework group  C1[X(C8H6O3)]
 Deg. of freedom    45
 Full point group                 C1      NOp   1
 Rotational constants (GHZ):           1.5386600           1.0740258           0.6354968
 Standard basis: 6-31++G(d,p) (6D, 7F)
   245 basis functions,   400 primitive gaussians,   245 cartesian basis functions
    39 alpha electrons       39 beta electrons
       nuclear repulsion energy       562.2136088074 Hartrees.
 NAtoms=   17 NActive=   17 NUniq=   17 SFac= 1.00D+00 NAtFMM=   60 NAOKFM=F Big=F
 Integral buffers will be    131072 words long.
 Raffenetti 2 integral format.
 Two-electron integral symmetry is turned off.
 One-electron integrals computed using PRISM.
 NBasis=   245 RedAO= T EigKep=  2.06D-06  NBF=   245
 NBsUse=   244 1.00D-06 EigRej=  5.16D-07 NBFU=   244
 Initial guess from the checkpoint file:  "C:\Users\Administrator\Desktop\dataset_dft\C8H6O3\C8H6O3.chk"
 B after Tr=    -0.002140    0.000114   -0.002109
         Rot=    1.000000    0.000010    0.000336    0.000009 Ang=   0.04 deg.
 ExpMin= 3.60D-02 ExpMax= 5.48D+03 ExpMxC= 8.25D+02 IAcc=3 IRadAn=         5 AccDes= 0.00D+00
 Harris functional with IExCor=  402 and IRadAn=       5 diagonalized for initial guess.
 HarFok:  IExCor=  402 AccDes= 0.00D+00 IRadAn=         5 IDoV= 1 UseB2=F ITyADJ=14
 ICtDFT=  3500011 ScaDFX=  1.000000  1.000000  1.000000  1.000000
 FoFCou: FMM=F IPFlag=           0 FMFlag=      100000 FMFlg1=           0
         NFxFlg=           0 DoJE=T BraDBF=F KetDBF=T FulRan=T
         wScrn=  0.000000 ICntrl=       500 IOpCl=  0 I1Cent=   200000004 NGrid=           0
         NMat0=    1 NMatS0=      1 NMatT0=    0 NMatD0=    1 NMtDS0=    0 NMtDT0=    0
 Symmetry not used in FoFCou.
 Requested convergence on RMS density matrix=1.00D-08 within 128 cycles.
 Requested convergence on MAX density matrix=1.00D-06.
 Requested convergence on             energy=1.00D-06.
 No special actions if energy rises.
 SCF Done:  E(RB3LYP) =  -534.099828993     A.U. after   13 cycles
            NFock= 13  Conv=0.45D-08     -V/T= 2.0085
 Variable Step   Value    
 -------- ---- -----------
    16       4    1.700754
 ---------------------------------------------------------------------------------------------------
                            Z-MATRIX (ANGSTROMS AND DEGREES)
   CD    Cent   Atom    N1       Length/X        N2       Alpha/Y        N3        Beta/Z          J
 ---------------------------------------------------------------------------------------------------
      1      1  C 
      2      2  C        1   1.416405(     1)
      3      3  C        2   1.401843(     2)      1  120.707(    17)
      4      4  C        3   1.387814(     3)      2  119.979(    18)      1    0.201(    32)      0
      5      5  C        4   1.399832(     4)      3  120.495(    19)      2   -0.482(    33)      0
      6      6  C        5   1.393225(     5)      4  120.358(    20)      3    0.190(    34)      0
      7      7  H        3   1.084756(     6)      2  118.270(    21)      1  179.519(    35)      0
      8      8  H        4   1.085840(     7)      3  119.562(    22)      2  179.722(    36)      0
      9      9  H        5   1.084290(     8)      4  121.250(    23)      3 -178.844(    37)      0
     10     10  C        6   1.501171(     9)      5  116.670(    24)      4 -175.432(    38)      0
     11     11  H       10   1.099244(    10)      6  117.103(    25)      5  156.547(    39)      0
     12     12  O       10   1.218834(    11)      6  121.980(    26)      5  -21.197(    40)      0
     13     13  C        1   1.472578(    12)      2  119.519(    27)      3 -178.107(    41)      0
     14     14  O       13   1.220178(    13)      1  126.195(    28)      2  163.535(    42)      0
     15     15  H       13   1.113681(    14)      1  115.908(    29)      2  -16.954(    43)      0
     16     16  O        2   1.363991(    15)      1  124.490(    30)      6  178.799(    44)      0
     17     17  H       16   0.900000(    16)      2  112.214(    31)      1   -0.873(    45)      0
 ---------------------------------------------------------------------------------------------------
                         Z-Matrix orientation:                         
 ---------------------------------------------------------------------
 Center     Atomic      Atomic             Coordinates (Angstroms)
 Number     Number       Type             X           Y           Z
 ---------------------------------------------------------------------
      1          6           0        0.000000    0.000000    0.000000
      2          6           0        0.000000    0.000000    1.416405
      3          6           0        1.205288    0.000000    2.132257
      4          6           0        2.415384    0.004207    1.452790
      5          6           0        2.444256   -0.001670    0.053268
      6          6           0        1.256849   -0.007847   -0.675499
      7          1           0        1.159177    0.008018    3.216003
      8          1           0        3.344911    0.008756    2.014044
      9          1           0        3.382535   -0.017173   -0.489941
     10          6           0        1.382332   -0.120696   -2.167154
     11          1           0        0.515109   -0.517038   -2.714123
     12          8           0        2.410696    0.171714   -2.752405
     13          6           0       -1.280730    0.042319   -0.725552
     14          8           0       -1.433175    0.326596   -1.902319
     15          1           0       -2.185439   -0.220064   -0.131464
     16          8           0       -1.123825    0.030583    2.188773
     17          1           0       -1.875408    0.063728    1.694785
 ---------------------------------------------------------------------
                    Distance matrix (angstroms):
                    1          2          3          4          5
     1  C    0.000000
     2  C    1.416405   0.000000
     3  C    2.449335   1.401843   0.000000
     4  C    2.818634   2.415662   1.387814   0.000000
     5  C    2.444837   2.798667   2.420174   1.399832   0.000000
     6  C    1.426895   2.440449   2.808240   2.423213   1.393225
     7  H    3.418542   2.140632   1.084756   2.164947   3.413857
     8  H    3.904469   3.397894   2.142905   1.085840   2.157760
     9  H    3.417877   3.882782   3.408317   2.170263   1.084290
    10  C    2.573318   3.842825   4.304747   3.766535   2.464168
    11  H    2.810539   4.194512   4.922507   4.609327   3.412574
    12  O    3.662878   4.818706   5.034126   4.208532   2.811226
    13  C    1.472578   2.496005   3.788027   4.290441   3.805787
    14  O    2.404054   3.629682   4.831766   5.115868   4.355061
    15  H    2.200421   2.687093   4.082877   4.871112   4.638523
    16  O    2.460619   1.363991   2.329999   3.615020   4.158441
    17  H    2.528539   1.897027   3.112255   4.298023   4.621510
                    6          7          8          9         10
     6  C    0.000000
     7  H    3.892760   0.000000
     8  H    3.404985   2.494423   0.000000
     9  H    2.133791   4.321803   2.504402   0.000000
    10  C    1.501171   5.389317   4.620702   2.612388   0.000000
    11  H    2.228327   5.988063   5.535323   3.663193   1.099244
    12  O    2.382676   6.100409   4.859871   2.469594   1.218834
    13  C    2.538568   4.635750   5.376157   4.669592   3.032603
    14  O    2.975428   5.746217   6.186197   5.030314   2.863091
    15  H    3.491468   4.737511   5.936357   5.583189   4.108880
    16  O    3.724666   2.503559   4.472205   5.242621   5.027704
    17  H    3.928664   3.394983   5.230362   5.694343   5.055833
                   11         12         13         14         15
    11  H    0.000000
    12  O    2.017199   0.000000
    13  C    2.737212   4.213253   0.000000
    14  O    2.273006   3.939794   1.220178   0.000000
    15  H    3.748503   5.305401   1.113681   2.000167   0.000000
    16  O    5.198498   6.076842   2.918570   4.113437   2.563854
    17  H    5.048795   6.177366   2.492415   3.633707   1.873991
                   16         17
    16  O    0.000000
    17  H    0.900000   0.000000
 Symmetry turned off by external request.
 Stoichiometry    C8H6O3
 Framework group  C1[X(C8H6O3)]
 Deg. of freedom    45
 Full point group                 C1      NOp   1
 Rotational constants (GHZ):           1.5371508           1.0742889           0.6353312
 Standard basis: 6-31++G(d,p) (6D, 7F)
   245 basis functions,   400 primitive gaussians,   245 cartesian basis functions
    39 alpha electrons       39 beta electrons
       nuclear repulsion energy       561.5182454376 Hartrees.
 NAtoms=   17 NActive=   17 NUniq=   17 SFac= 1.00D+00 NAtFMM=   60 NAOKFM=F Big=F
 Integral buffers will be    131072 words long.
 Raffenetti 2 integral format.
 Two-electron integral symmetry is turned off.
 One-electron integrals computed using PRISM.
 NBasis=   245 RedAO= T EigKep=  2.05D-06  NBF=   245
 NBsUse=   244 1.00D-06 EigRej=  5.29D-07 NBFU=   244
 Initial guess from the checkpoint file:  "C:\Users\Administrator\Desktop\dataset_dft\C8H6O3\C8H6O3.chk"
 B after Tr=    -0.002141    0.000114   -0.002107
         Rot=    1.000000    0.000010    0.000336    0.000009 Ang=   0.04 deg.
 ExpMin= 3.60D-02 ExpMax= 5.48D+03 ExpMxC= 8.25D+02 IAcc=3 IRadAn=         5 AccDes= 0.00D+00
 Harris functional with IExCor=  402 and IRadAn=       5 diagonalized for initial guess.
 HarFok:  IExCor=  402 AccDes= 0.00D+00 IRadAn=         5 IDoV= 1 UseB2=F ITyADJ=14
 ICtDFT=  3500011 ScaDFX=  1.000000  1.000000  1.000000  1.000000
 FoFCou: FMM=F IPFlag=           0 FMFlag=      100000 FMFlg1=           0
         NFxFlg=           0 DoJE=T BraDBF=F KetDBF=T FulRan=T
         wScrn=  0.000000 ICntrl=       500 IOpCl=  0 I1Cent=   200000004 NGrid=           0
         NMat0=    1 NMatS0=      1 NMatT0=    0 NMatD0=    1 NMtDS0=    0 NMtDT0=    0
 Symmetry not used in FoFCou.
 Requested convergence on RMS density matrix=1.00D-08 within 128 cycles.
 Requested convergence on MAX density matrix=1.00D-06.
 Requested convergence on             energy=1.00D-06.
 No special actions if energy rises.
 SCF Done:  E(RB3LYP) =  -534.134306231     A.U. after   13 cycles
            NFock= 13  Conv=0.48D-08     -V/T= 2.0091
 Variable Step   Value    
 -------- ---- -----------
    16       5    1.889726
 ---------------------------------------------------------------------------------------------------
                            Z-MATRIX (ANGSTROMS AND DEGREES)
   CD    Cent   Atom    N1       Length/X        N2       Alpha/Y        N3        Beta/Z          J
 ---------------------------------------------------------------------------------------------------
      1      1  C 
      2      2  C        1   1.416405(     1)
      3      3  C        2   1.401843(     2)      1  120.707(    17)
      4      4  C        3   1.387814(     3)      2  119.979(    18)      1    0.201(    32)      0
      5      5  C        4   1.399832(     4)      3  120.495(    19)      2   -0.482(    33)      0
      6      6  C        5   1.393225(     5)      4  120.358(    20)      3    0.190(    34)      0
      7      7  H        3   1.084756(     6)      2  118.270(    21)      1  179.519(    35)      0
      8      8  H        4   1.085840(     7)      3  119.562(    22)      2  179.722(    36)      0
      9      9  H        5   1.084290(     8)      4  121.250(    23)      3 -178.844(    37)      0
     10     10  C        6   1.501171(     9)      5  116.670(    24)      4 -175.432(    38)      0
     11     11  H       10   1.099244(    10)      6  117.103(    25)      5  156.547(    39)      0
     12     12  O       10   1.218834(    11)      6  121.980(    26)      5  -21.197(    40)      0
     13     13  C        1   1.472578(    12)      2  119.519(    27)      3 -178.107(    41)      0
     14     14  O       13   1.220178(    13)      1  126.195(    28)      2  163.535(    42)      0
     15     15  H       13   1.113681(    14)      1  115.908(    29)      2  -16.954(    43)      0
     16     16  O        2   1.363991(    15)      1  124.490(    30)      6  178.799(    44)      0
     17     17  H       16   1.000000(    16)      2  112.214(    31)      1   -0.873(    45)      0
 ---------------------------------------------------------------------------------------------------
                         Z-Matrix orientation:                         
 ---------------------------------------------------------------------
 Center     Atomic      Atomic             Coordinates (Angstroms)
 Number     Number       Type             X           Y           Z
 ---------------------------------------------------------------------
      1          6           0        0.000000    0.000000    0.000000
      2          6           0        0.000000    0.000000    1.416405
      3          6           0        1.205288    0.000000    2.132257
      4          6           0        2.415384    0.004207    1.452790
      5          6           0        2.444256   -0.001670    0.053268
      6          6           0        1.256849   -0.007847   -0.675499
      7          1           0        1.159177    0.008018    3.216003
      8          1           0        3.344911    0.008756    2.014044
      9          1           0        3.382535   -0.017173   -0.489941
     10          6           0        1.382332   -0.120696   -2.167154
     11          1           0        0.515109   -0.517038   -2.714123
     12          8           0        2.410696    0.171714   -2.752405
     13          6           0       -1.280730    0.042319   -0.725552
     14          8           0       -1.433175    0.326596   -1.902319
     15          1           0       -2.185439   -0.220064   -0.131464
     16          8           0       -1.123825    0.030583    2.188773
     17          1           0       -1.958917    0.067411    1.639897
 ---------------------------------------------------------------------
                    Distance matrix (angstroms):
                    1          2          3          4          5
     1  C    0.000000
     2  C    1.416405   0.000000
     3  C    2.449335   1.401843   0.000000
     4  C    2.818634   2.415662   1.387814   0.000000
     5  C    2.444837   2.798667   2.420174   1.399832   0.000000
     6  C    1.426895   2.440449   2.808240   2.423213   1.393225
     7  H    3.418542   2.140632   1.084756   2.164947   3.413857
     8  H    3.904469   3.397894   2.142905   1.085840   2.157760
     9  H    3.417877   3.882782   3.408317   2.170263   1.084290
    10  C    2.573318   3.842825   4.304747   3.766535   2.464168
    11  H    2.810539   4.194512   4.922507   4.609327   3.412574
    12  O    3.662878   4.818706   5.034126   4.208532   2.811226
    13  C    1.472578   2.496005   3.788027   4.290441   3.805787
    14  O    2.404054   3.629682   4.831766   5.115868   4.355061
    15  H    2.200421   2.687093   4.082877   4.871112   4.638523
    16  O    2.460619   1.363991   2.329999   3.615020   4.158441
    17  H    2.555614   1.972777   3.202992   4.378757   4.680823
                    6          7          8          9         10
     6  C    0.000000
     7  H    3.892760   0.000000
     8  H    3.404985   2.494423   0.000000
     9  H    2.133791   4.321803   2.504402   0.000000
    10  C    1.501171   5.389317   4.620702   2.612388   0.000000
    11  H    2.228327   5.988063   5.535323   3.663193   1.099244
    12  O    2.382676   6.100409   4.859871   2.469594   1.218834
    13  C    2.538568   4.635750   5.376157   4.669592   3.032603
    14  O    2.975428   5.746217   6.186197   5.030314   2.863091
    15  H    3.491468   4.737511   5.936357   5.583189   4.108880
    16  O    3.724666   2.503559   4.472205   5.242621   5.027704
    17  H    3.963316   3.494302   5.317332   5.751042   5.068823
                   11         12         13         14         15
    11  H    0.000000
    12  O    2.017199   0.000000
    13  C    2.737212   4.213253   0.000000
    14  O    2.273006   3.939794   1.220178   0.000000
    15  H    3.748503   5.305401   1.113681   2.000167   0.000000
    16  O    5.198498   6.076842   2.918570   4.113437   2.563854
    17  H    5.041813   6.196509   2.460878   3.590387   1.808777
                   16         17
    16  O    0.000000
    17  H    1.000000   0.000000
 Symmetry turned off by external request.
 Stoichiometry    C8H6O3
 Framework group  C1[X(C8H6O3)]
 Deg. of freedom    45
 Full point group                 C1      NOp   1
 Rotational constants (GHZ):           1.5355587           1.0745484           0.6351497
 Standard basis: 6-31++G(d,p) (6D, 7F)
   245 basis functions,   400 primitive gaussians,   245 cartesian basis functions
    39 alpha electrons       39 beta electrons
       nuclear repulsion energy       560.9419843964 Hartrees.
 NAtoms=   17 NActive=   17 NUniq=   17 SFac= 1.00D+00 NAtFMM=   60 NAOKFM=F Big=F
 Integral buffers will be    131072 words long.
 Raffenetti 2 integral format.
 Two-electron integral symmetry is turned off.
 One-electron integrals computed using PRISM.
 NBasis=   245 RedAO= T EigKep=  2.04D-06  NBF=   245
 NBsUse=   244 1.00D-06 EigRej=  5.43D-07 NBFU=   244
 Initial guess from the checkpoint file:  "C:\Users\Administrator\Desktop\dataset_dft\C8H6O3\C8H6O3.chk"
 B after Tr=    -0.002142    0.000113   -0.002105
         Rot=    1.000000    0.000010    0.000336    0.000009 Ang=   0.04 deg.
 ExpMin= 3.60D-02 ExpMax= 5.48D+03 ExpMxC= 8.25D+02 IAcc=3 IRadAn=         5 AccDes= 0.00D+00
 Harris functional with IExCor=  402 and IRadAn=       5 diagonalized for initial guess.
 HarFok:  IExCor=  402 AccDes= 0.00D+00 IRadAn=         5 IDoV= 1 UseB2=F ITyADJ=14
 ICtDFT=  3500011 ScaDFX=  1.000000  1.000000  1.000000  1.000000
 FoFCou: FMM=F IPFlag=           0 FMFlag=      100000 FMFlg1=           0
         NFxFlg=           0 DoJE=T BraDBF=F KetDBF=T FulRan=T
         wScrn=  0.000000 ICntrl=       500 IOpCl=  0 I1Cent=   200000004 NGrid=           0
         NMat0=    1 NMatS0=      1 NMatT0=    0 NMatD0=    1 NMtDS0=    0 NMtDT0=    0
 Symmetry not used in FoFCou.
 Requested convergence on RMS density matrix=1.00D-08 within 128 cycles.
 Requested convergence on MAX density matrix=1.00D-06.
 Requested convergence on             energy=1.00D-06.
 No special actions if energy rises.
 SCF Done:  E(RB3LYP) =  -534.137978458     A.U. after   13 cycles
            NFock= 13  Conv=0.52D-08     -V/T= 2.0094
 Variable Step   Value    
 -------- ---- -----------
    16       6    2.078699
 ---------------------------------------------------------------------------------------------------
                            Z-MATRIX (ANGSTROMS AND DEGREES)
   CD    Cent   Atom    N1       Length/X        N2       Alpha/Y        N3        Beta/Z          J
 ---------------------------------------------------------------------------------------------------
      1      1  C 
      2      2  C        1   1.416405(     1)
      3      3  C        2   1.401843(     2)      1  120.707(    17)
      4      4  C        3   1.387814(     3)      2  119.979(    18)      1    0.201(    32)      0
      5      5  C        4   1.399832(     4)      3  120.495(    19)      2   -0.482(    33)      0
      6      6  C        5   1.393225(     5)      4  120.358(    20)      3    0.190(    34)      0
      7      7  H        3   1.084756(     6)      2  118.270(    21)      1  179.519(    35)      0
      8      8  H        4   1.085840(     7)      3  119.562(    22)      2  179.722(    36)      0
      9      9  H        5   1.084290(     8)      4  121.250(    23)      3 -178.844(    37)      0
     10     10  C        6   1.501171(     9)      5  116.670(    24)      4 -175.432(    38)      0
     11     11  H       10   1.099244(    10)      6  117.103(    25)      5  156.547(    39)      0
     12     12  O       10   1.218834(    11)      6  121.980(    26)      5  -21.197(    40)      0
     13     13  C        1   1.472578(    12)      2  119.519(    27)      3 -178.107(    41)      0
     14     14  O       13   1.220178(    13)      1  126.195(    28)      2  163.535(    42)      0
     15     15  H       13   1.113681(    14)      1  115.908(    29)      2  -16.954(    43)      0
     16     16  O        2   1.363991(    15)      1  124.490(    30)      6  178.799(    44)      0
     17     17  H       16   1.100000(    16)      2  112.214(    31)      1   -0.873(    45)      0
 ---------------------------------------------------------------------------------------------------
                         Z-Matrix orientation:                         
 ---------------------------------------------------------------------
 Center     Atomic      Atomic             Coordinates (Angstroms)
 Number     Number       Type             X           Y           Z
 ---------------------------------------------------------------------
      1          6           0        0.000000    0.000000    0.000000
      2          6           0        0.000000    0.000000    1.416405
      3          6           0        1.205288    0.000000    2.132257
      4          6           0        2.415384    0.004207    1.452790
      5          6           0        2.444256   -0.001670    0.053268
      6          6           0        1.256849   -0.007847   -0.675499
      7          1           0        1.159177    0.008018    3.216003
      8          1           0        3.344911    0.008756    2.014044
      9          1           0        3.382535   -0.017173   -0.489941
     10          6           0        1.382332   -0.120696   -2.167154
     11          1           0        0.515109   -0.517038   -2.714123
     12          8           0        2.410696    0.171714   -2.752405
     13          6           0       -1.280730    0.042319   -0.725552
     14          8           0       -1.433175    0.326596   -1.902319
     15          1           0       -2.185439   -0.220064   -0.131464
     16          8           0       -1.123825    0.030583    2.188773
     17          1           0       -2.042426    0.071094    1.585010
 ---------------------------------------------------------------------
                    Distance matrix (angstroms):
                    1          2          3          4          5
     1  C    0.000000
     2  C    1.416405   0.000000
     3  C    2.449335   1.401843   0.000000
     4  C    2.818634   2.415662   1.387814   0.000000
     5  C    2.444837   2.798667   2.420174   1.399832   0.000000
     6  C    1.426895   2.440449   2.808240   2.423213   1.393225
     7  H    3.418542   2.140632   1.084756   2.164947   3.413857
     8  H    3.904469   3.397894   2.142905   1.085840   2.157760
     9  H    3.417877   3.882782   3.408317   2.170263   1.084290
    10  C    2.573318   3.842825   4.304747   3.766535   2.464168
    11  H    2.810539   4.194512   4.922507   4.609327   3.412574
    12  O    3.662878   4.818706   5.034126   4.208532   2.811226
    13  C    1.472578   2.496005   3.788027   4.290441   3.805787
    14  O    2.404054   3.629682   4.831766   5.115868   4.355061
    15  H    2.200421   2.687093   4.082877   4.871112   4.638523
    16  O    2.460619   1.363991   2.329999   3.615020   4.158441
    17  H    2.586274   2.050606   3.294265   4.460273   4.741503
                    6          7          8          9         10
     6  C    0.000000
     7  H    3.892760   0.000000
     8  H    3.404985   2.494423   0.000000
     9  H    2.133791   4.321803   2.504402   0.000000
    10  C    1.501171   5.389317   4.620702   2.612388   0.000000
    11  H    2.228327   5.988063   5.535323   3.663193   1.099244
    12  O    2.382676   6.100409   4.859871   2.469594   1.218834
    13  C    2.538568   4.635750   5.376157   4.669592   3.032603
    14  O    2.975428   5.746217   6.186197   5.030314   2.863091
    15  H    3.491468   4.737511   5.936357   5.583189   4.108880
    16  O    3.724666   2.503559   4.472205   5.242621   5.027704
    17  H    4.000168   3.593658   5.404754   5.808909   5.083747
                   11         12         13         14         15
    11  H    0.000000
    12  O    2.017199   0.000000
    13  C    2.737212   4.213253   0.000000
    14  O    2.273006   3.939794   1.220178   0.000000
    15  H    3.748503   5.305401   1.113681   2.000167   0.000000
    16  O    5.198498   6.076842   2.918570   4.113437   2.563854
    17  H    5.036807   6.217201   2.433045   3.549357   1.746856
                   16         17
    16  O    0.000000
    17  H    1.100000   0.000000
 Symmetry turned off by external request.
 Stoichiometry    C8H6O3
 Framework group  C1[X(C8H6O3)]
 Deg. of freedom    45
 Full point group                 C1      NOp   1
 Rotational constants (GHZ):           1.5338841           1.0748043           0.6349524
 Standard basis: 6-31++G(d,p) (6D, 7F)
   245 basis functions,   400 primitive gaussians,   245 cartesian basis functions
    39 alpha electrons       39 beta electrons
       nuclear repulsion energy       560.4525749089 Hartrees.
 NAtoms=   17 NActive=   17 NUniq=   17 SFac= 1.00D+00 NAtFMM=   60 NAOKFM=F Big=F
 Integral buffers will be    131072 words long.
 Raffenetti 2 integral format.
 Two-electron integral symmetry is turned off.
 One-electron integrals computed using PRISM.
 NBasis=   245 RedAO= T EigKep=  2.03D-06  NBF=   245
 NBsUse=   244 1.00D-06 EigRej=  5.57D-07 NBFU=   244
 Initial guess from the checkpoint file:  "C:\Users\Administrator\Desktop\dataset_dft\C8H6O3\C8H6O3.chk"
 B after Tr=    -0.002143    0.000113   -0.002103
         Rot=    1.000000    0.000010    0.000336    0.000009 Ang=   0.04 deg.
 ExpMin= 3.60D-02 ExpMax= 5.48D+03 ExpMxC= 8.25D+02 IAcc=3 IRadAn=         5 AccDes= 0.00D+00
 Harris functional with IExCor=  402 and IRadAn=       5 diagonalized for initial guess.
 HarFok:  IExCor=  402 AccDes= 0.00D+00 IRadAn=         5 IDoV= 1 UseB2=F ITyADJ=14
 ICtDFT=  3500011 ScaDFX=  1.000000  1.000000  1.000000  1.000000
 FoFCou: FMM=F IPFlag=           0 FMFlag=      100000 FMFlg1=           0
         NFxFlg=           0 DoJE=T BraDBF=F KetDBF=T FulRan=T
         wScrn=  0.000000 ICntrl=       500 IOpCl=  0 I1Cent=   200000004 NGrid=           0
         NMat0=    1 NMatS0=      1 NMatT0=    0 NMatD0=    1 NMtDS0=    0 NMtDT0=    0
 Symmetry not used in FoFCou.
 Requested convergence on RMS density matrix=1.00D-08 within 128 cycles.
 Requested convergence on MAX density matrix=1.00D-06.
 Requested convergence on             energy=1.00D-06.
 No special actions if energy rises.
 SCF Done:  E(RB3LYP) =  -534.126407283     A.U. after   13 cycles
            NFock= 13  Conv=0.55D-08     -V/T= 2.0097
 Variable Step   Value    
 -------- ---- -----------
    16       7    2.267671
 ---------------------------------------------------------------------------------------------------
                            Z-MATRIX (ANGSTROMS AND DEGREES)
   CD    Cent   Atom    N1       Length/X        N2       Alpha/Y        N3        Beta/Z          J
 ---------------------------------------------------------------------------------------------------
      1      1  C 
      2      2  C        1   1.416405(     1)
      3      3  C        2   1.401843(     2)      1  120.707(    17)
      4      4  C        3   1.387814(     3)      2  119.979(    18)      1    0.201(    32)      0
      5      5  C        4   1.399832(     4)      3  120.495(    19)      2   -0.482(    33)      0
      6      6  C        5   1.393225(     5)      4  120.358(    20)      3    0.190(    34)      0
      7      7  H        3   1.084756(     6)      2  118.270(    21)      1  179.519(    35)      0
      8      8  H        4   1.085840(     7)      3  119.562(    22)      2  179.722(    36)      0
      9      9  H        5   1.084290(     8)      4  121.250(    23)      3 -178.844(    37)      0
     10     10  C        6   1.501171(     9)      5  116.670(    24)      4 -175.432(    38)      0
     11     11  H       10   1.099244(    10)      6  117.103(    25)      5  156.547(    39)      0
     12     12  O       10   1.218834(    11)      6  121.980(    26)      5  -21.197(    40)      0
     13     13  C        1   1.472578(    12)      2  119.519(    27)      3 -178.107(    41)      0
     14     14  O       13   1.220178(    13)      1  126.195(    28)      2  163.535(    42)      0
     15     15  H       13   1.113681(    14)      1  115.908(    29)      2  -16.954(    43)      0
     16     16  O        2   1.363991(    15)      1  124.490(    30)      6  178.799(    44)      0
     17     17  H       16   1.200000(    16)      2  112.214(    31)      1   -0.873(    45)      0
 ---------------------------------------------------------------------------------------------------
                         Z-Matrix orientation:                         
 ---------------------------------------------------------------------
 Center     Atomic      Atomic             Coordinates (Angstroms)
 Number     Number       Type             X           Y           Z
 ---------------------------------------------------------------------
      1          6           0        0.000000    0.000000    0.000000
      2          6           0        0.000000    0.000000    1.416405
      3          6           0        1.205288    0.000000    2.132257
      4          6           0        2.415384    0.004207    1.452790
      5          6           0        2.444256   -0.001670    0.053268
      6          6           0        1.256849   -0.007847   -0.675499
      7          1           0        1.159177    0.008018    3.216003
      8          1           0        3.344911    0.008756    2.014044
      9          1           0        3.382535   -0.017173   -0.489941
     10          6           0        1.382332   -0.120696   -2.167154
     11          1           0        0.515109   -0.517038   -2.714123
     12          8           0        2.410696    0.171714   -2.752405
     13          6           0       -1.280730    0.042319   -0.725552
     14          8           0       -1.433175    0.326596   -1.902319
     15          1           0       -2.185439   -0.220064   -0.131464
     16          8           0       -1.123825    0.030583    2.188773
     17          1           0       -2.125936    0.074777    1.530122
 ---------------------------------------------------------------------
                    Distance matrix (angstroms):
                    1          2          3          4          5
     1  C    0.000000
     2  C    1.416405   0.000000
     3  C    2.449335   1.401843   0.000000
     4  C    2.818634   2.415662   1.387814   0.000000
     5  C    2.444837   2.798667   2.420174   1.399832   0.000000
     6  C    1.426895   2.440449   2.808240   2.423213   1.393225
     7  H    3.418542   2.140632   1.084756   2.164947   3.413857
     8  H    3.904469   3.397894   2.142905   1.085840   2.157760
[...]
 No special actions if energy rises.
 EnCoef did    10 forward-backward iterations
 EnCoef did     3 forward-backward iterations
 EnCoef did     4 forward-backward iterations
 SCF Done:  E(RB3LYP) =  -533.954856576     A.U. after   18 cycles
            NFock= 18  Conv=0.39D-08     -V/T= 2.0097
 Variable Step   Value    
 -------- ---- -----------
    16      19    4.535343
 ---------------------------------------------------------------------------------------------------
                            Z-MATRIX (ANGSTROMS AND DEGREES)
   CD    Cent   Atom    N1       Length/X        N2       Alpha/Y        N3        Beta/Z          J
 ---------------------------------------------------------------------------------------------------
      1      1  C 
      2      2  C        1   1.416405(     1)
      3      3  C        2   1.401843(     2)      1  120.707(    17)
      4      4  C        3   1.387814(     3)      2  119.979(    18)      1    0.201(    32)      0
      5      5  C        4   1.399832(     4)      3  120.495(    19)      2   -0.482(    33)      0
      6      6  C        5   1.393225(     5)      4  120.358(    20)      3    0.190(    34)      0
      7      7  H        3   1.084756(     6)      2  118.270(    21)      1  179.519(    35)      0
      8      8  H        4   1.085840(     7)      3  119.562(    22)      2  179.722(    36)      0
      9      9  H        5   1.084290(     8)      4  121.250(    23)      3 -178.844(    37)      0
     10     10  C        6   1.501171(     9)      5  116.670(    24)      4 -175.432(    38)      0
     11     11  H       10   1.099244(    10)      6  117.103(    25)      5  156.547(    39)      0
     12     12  O       10   1.218834(    11)      6  121.980(    26)      5  -21.197(    40)      0
     13     13  C        1   1.472578(    12)      2  119.519(    27)      3 -178.107(    41)      0
     14     14  O       13   1.220178(    13)      1  126.195(    28)      2  163.535(    42)      0
     15     15  H       13   1.113681(    14)      1  115.908(    29)      2  -16.954(    43)      0
     16     16  O        2   1.363991(    15)      1  124.490(    30)      6  178.799(    44)      0
     17     17  H       16   2.400000(    16)      2  112.214(    31)      1   -0.873(    45)      0
 ---------------------------------------------------------------------------------------------------
                         Z-Matrix orientation:                         
 ---------------------------------------------------------------------
 Center     Atomic      Atomic             Coordinates (Angstroms)
 Number     Number       Type             X           Y           Z
 ---------------------------------------------------------------------
      1          6           0        0.000000    0.000000    0.000000
      2          6           0        0.000000    0.000000    1.416405
      3          6           0        1.205288    0.000000    2.132257
      4          6           0        2.415384    0.004207    1.452790
      5          6           0        2.444256   -0.001670    0.053268
      6          6           0        1.256849   -0.007847   -0.675499
      7          1           0        1.159177    0.008018    3.216003
      8          1           0        3.344911    0.008756    2.014044
      9          1           0        3.382535   -0.017173   -0.489941
     10          6           0        1.382332   -0.120696   -2.167154
     11          1           0        0.515109   -0.517038   -2.714123
     12          8           0        2.410696    0.171714   -2.752405
     13          6           0       -1.280730    0.042319   -0.725552
     14          8           0       -1.433175    0.326596   -1.902319
     15          1           0       -2.185439   -0.220064   -0.131464
     16          8           0       -1.123825    0.030583    2.188773
     17          1           0       -3.128046    0.118971    0.871471
 ---------------------------------------------------------------------
                    Distance matrix (angstroms):
                    1          2          3          4          5
     1  C    0.000000
     2  C    1.416405   0.000000
     3  C    2.449335   1.401843   0.000000
     4  C    2.818634   2.415662   1.387814   0.000000
     5  C    2.444837   2.798667   2.420174   1.399832   0.000000
     6  C    1.426895   2.440449   2.808240   2.423213   1.393225
     7  H    3.418542   2.140632   1.084756   2.164947   3.413857
     8  H    3.904469   3.397894   2.142905   1.085840   2.157760
     9  H    3.417877   3.882782   3.408317   2.170263   1.084290
    10  C    2.573318   3.842825   4.304747   3.766535   2.464168
    11  H    2.810539   4.194512   4.922507   4.609327   3.412574
    12  O    3.662878   4.818706   5.034126   4.208532   2.811226
    13  C    1.472578   2.496005   3.788027   4.290441   3.805787
    14  O    2.404054   3.629682   4.831766   5.115868   4.355061
    15  H    2.200421   2.687093   4.082877   4.871112   4.638523
    16  O    2.460619   1.363991   2.329999   3.615020   4.158441
    17  H    3.249352   3.177386   4.514590   5.575009   5.633344
                    6          7          8          9         10
     6  C    0.000000
     7  H    3.892760   0.000000
     8  H    3.404985   2.494423   0.000000
     9  H    2.133791   4.321803   2.504402   0.000000
    10  C    1.501171   5.389317   4.620702   2.612388   0.000000
    11  H    2.228327   5.988063   5.535323   3.663193   1.099244
    12  O    2.382676   6.100409   4.859871   2.469594   1.218834
    13  C    2.538568   4.635750   5.376157   4.669592   3.032603
    14  O    2.975428   5.746217   6.186197   5.030314   2.863091
    15  H    3.491468   4.737511   5.936357   5.583189   4.108880
    16  O    3.724666   2.503559   4.472205   5.242621   5.027704
    17  H    4.651505   4.887680   6.573948   6.652792   5.443729
                   11         12         13         14         15
    11  H    0.000000
    12  O    2.017199   0.000000
    13  C    2.737212   4.213253   0.000000
    14  O    2.273006   3.939794   1.220178   0.000000
    15  H    3.748503   5.305401   1.113681   2.000167   0.000000
    16  O    5.198498   6.076842   2.918570   4.113437   2.563854
    17  H    5.151074   6.619133   2.443141   3.257239   1.417509
                   16         17
    16  O    0.000000
    17  H    2.400000   0.000000
 Symmetry turned off by external request.
 Stoichiometry    C8H6O3
 Framework group  C1[X(C8H6O3)]
 Deg. of freedom    45
 Full point group                 C1      NOp   1
 Rotational constants (GHZ):           1.5048309           1.0778396           0.6309594
 Standard basis: 6-31++G(d,p) (6D, 7F)
   245 basis functions,   400 primitive gaussians,   245 cartesian basis functions
    39 alpha electrons       39 beta electrons
       nuclear repulsion energy       556.9673374707 Hartrees.
 NAtoms=   17 NActive=   17 NUniq=   17 SFac= 1.00D+00 NAtFMM=   60 NAOKFM=F Big=F
 Integral buffers will be    131072 words long.
 Raffenetti 2 integral format.
 Two-electron integral symmetry is turned off.
 One-electron integrals computed using PRISM.
 NBasis=   245 RedAO= T EigKep=  1.99D-06  NBF=   245
 NBsUse=   244 1.00D-06 EigRej=  7.77D-07 NBFU=   244
 Initial guess from the checkpoint file:  "C:\Users\Administrator\Desktop\dataset_dft\C8H6O3\C8H6O3.chk"
 B after Tr=    -0.002153    0.000113   -0.002077
         Rot=    1.000000    0.000010    0.000332    0.000009 Ang=   0.04 deg.
 ExpMin= 3.60D-02 ExpMax= 5.48D+03 ExpMxC= 8.25D+02 IAcc=3 IRadAn=         5 AccDes= 0.00D+00
 Harris functional with IExCor=  402 and IRadAn=       5 diagonalized for initial guess.
 HarFok:  IExCor=  402 AccDes= 0.00D+00 IRadAn=         5 IDoV= 1 UseB2=F ITyADJ=14
 ICtDFT=  3500011 ScaDFX=  1.000000  1.000000  1.000000  1.000000
 FoFCou: FMM=F IPFlag=           0 FMFlag=      100000 FMFlg1=           0
         NFxFlg=           0 DoJE=T BraDBF=F KetDBF=T FulRan=T
         wScrn=  0.000000 ICntrl=       500 IOpCl=  0 I1Cent=   200000004 NGrid=           0
         NMat0=    1 NMatS0=      1 NMatT0=    0 NMatD0=    1 NMtDS0=    0 NMtDT0=    0
 Symmetry not used in FoFCou.
 Requested convergence on RMS density matrix=1.00D-08 within 128 cycles.
 Requested convergence on MAX density matrix=1.00D-06.
 Requested convergence on             energy=1.00D-06.
 No special actions if energy rises.
 EnCoef did    11 forward-backward iterations
 EnCoef did     4 forward-backward iterations
 EnCoef did     3 forward-backward iterations
 SCF Done:  E(RB3LYP) =  -533.949704197     A.U. after   16 cycles
            NFock= 16  Conv=0.91D-08     -V/T= 2.0097
 Variable Step   Value    
 -------- ---- -----------
    16      20    4.724315
 ---------------------------------------------------------------------------------------------------
                            Z-MATRIX (ANGSTROMS AND DEGREES)
   CD    Cent   Atom    N1       Length/X        N2       Alpha/Y        N3        Beta/Z          J
 ---------------------------------------------------------------------------------------------------
      1      1  C 
      2      2  C        1   1.416405(     1)
      3      3  C        2   1.401843(     2)      1  120.707(    17)
      4      4  C        3   1.387814(     3)      2  119.979(    18)      1    0.201(    32)      0
      5      5  C        4   1.399832(     4)      3  120.495(    19)      2   -0.482(    33)      0
      6      6  C        5   1.393225(     5)      4  120.358(    20)      3    0.190(    34)      0
      7      7  H        3   1.084756(     6)      2  118.270(    21)      1  179.519(    35)      0
      8      8  H        4   1.085840(     7)      3  119.562(    22)      2  179.722(    36)      0
      9      9  H        5   1.084290(     8)      4  121.250(    23)      3 -178.844(    37)      0
     10     10  C        6   1.501171(     9)      5  116.670(    24)      4 -175.432(    38)      0
     11     11  H       10   1.099244(    10)      6  117.103(    25)      5  156.547(    39)      0
     12     12  O       10   1.218834(    11)      6  121.980(    26)      5  -21.197(    40)      0
     13     13  C        1   1.472578(    12)      2  119.519(    27)      3 -178.107(    41)      0
     14     14  O       13   1.220178(    13)      1  126.195(    28)      2  163.535(    42)      0
     15     15  H       13   1.113681(    14)      1  115.908(    29)      2  -16.954(    43)      0
     16     16  O        2   1.363991(    15)      1  124.490(    30)      6  178.799(    44)      0
     17     17  H       16   2.500000(    16)      2  112.214(    31)      1   -0.873(    45)      0
 ---------------------------------------------------------------------------------------------------
                         Z-Matrix orientation:                         
 ---------------------------------------------------------------------
 Center     Atomic      Atomic             Coordinates (Angstroms)
 Number     Number       Type             X           Y           Z
 ---------------------------------------------------------------------
      1          6           0        0.000000    0.000000    0.000000
      2          6           0        0.000000    0.000000    1.416405
      3          6           0        1.205288    0.000000    2.132257
      4          6           0        2.415384    0.004207    1.452790
      5          6           0        2.444256   -0.001670    0.053268
      6          6           0        1.256849   -0.007847   -0.675499
      7          1           0        1.159177    0.008018    3.216003
      8          1           0        3.344911    0.008756    2.014044
      9          1           0        3.382535   -0.017173   -0.489941
     10          6           0        1.382332   -0.120696   -2.167154
     11          1           0        0.515109   -0.517038   -2.714123
     12          8           0        2.410696    0.171714   -2.752405
     13          6           0       -1.280730    0.042319   -0.725552
     14          8           0       -1.433175    0.326596   -1.902319
     15          1           0       -2.185439   -0.220064   -0.131464
     16          8           0       -1.123825    0.030583    2.188773
     17          1           0       -3.211555    0.122654    0.816583
 ---------------------------------------------------------------------
                    Distance matrix (angstroms):
                    1          2          3          4          5
     1  C    0.000000
     2  C    1.416405   0.000000
     3  C    2.449335   1.401843   0.000000
     4  C    2.818634   2.415662   1.387814   0.000000
     5  C    2.444837   2.798667   2.420174   1.399832   0.000000
     6  C    1.426895   2.440449   2.808240   2.423213   1.393225
     7  H    3.418542   2.140632   1.084756   2.164947   3.413857
     8  H    3.904469   3.397894   2.142905   1.085840   2.157760
     9  H    3.417877   3.882782   3.408317   2.170263   1.084290
    10  C    2.573318   3.842825   4.304747   3.766535   2.464168
    11  H    2.810539   4.194512   4.922507   4.609327   3.412574
    12  O    3.662878   4.818706   5.034126   4.208532   2.811226
    13  C    1.472578   2.496005   3.788027   4.290441   3.805787
    14  O    2.404054   3.629682   4.831766   5.115868   4.355061
    15  H    2.200421   2.687093   4.082877   4.871112   4.638523
    16  O    2.460619   1.363991   2.329999   3.615020   4.158441
    17  H    3.316012   3.269391   4.610265   5.664030   5.708442
                    6          7          8          9         10
     6  C    0.000000
     7  H    3.892760   0.000000
     8  H    3.404985   2.494423   0.000000
     9  H    2.133791   4.321803   2.504402   0.000000
    10  C    1.501171   5.389317   4.620702   2.612388   0.000000
    11  H    2.228327   5.988063   5.535323   3.663193   1.099244
    12  O    2.382676   6.100409   4.859871   2.469594   1.218834
    13  C    2.538568   4.635750   5.376157   4.669592   3.032603
    14  O    2.975428   5.746217   6.186197   5.030314   2.863091
    15  H    3.491468   4.737511   5.936357   5.583189   4.108880
    16  O    3.724666   2.503559   4.472205   5.242621   5.027704
    17  H    4.712746   4.987349   6.665894   6.723733   5.483220
                   11         12         13         14         15
    11  H    0.000000
    12  O    2.017199   0.000000
    13  C    2.737212   4.213253   0.000000
    14  O    2.273006   3.939794   1.220178   0.000000
    15  H    3.748503   5.305401   1.113681   2.000167   0.000000
    16  O    5.198498   6.076842   2.918570   4.113437   2.563854
    17  H    5.173308   6.659564   2.472392   3.255251   1.438459
                   16         17
    16  O    0.000000
    17  H    2.500000   0.000000
 Symmetry turned off by external request.
 Stoichiometry    C8H6O3
 Framework group  C1[X(C8H6O3)]
 Deg. of freedom    45
 Full point group                 C1      NOp   1
 Rotational constants (GHZ):           1.5020568           1.0780526           0.6305441
 Standard basis: 6-31++G(d,p) (6D, 7F)
   245 basis functions,   400 primitive gaussians,   245 cartesian basis functions
    39 alpha electrons       39 beta electrons
       nuclear repulsion energy       556.7765282632 Hartrees.
 NAtoms=   17 NActive=   17 NUniq=   17 SFac= 1.00D+00 NAtFMM=   60 NAOKFM=F Big=F
 Integral buffers will be    131072 words long.
 Raffenetti 2 integral format.
 Two-electron integral symmetry is turned off.
 One-electron integrals computed using PRISM.
 NBasis=   245 RedAO= T EigKep=  2.00D-06  NBF=   245
 NBsUse=   244 1.00D-06 EigRej=  7.92D-07 NBFU=   244
 Initial guess from the checkpoint file:  "C:\Users\Administrator\Desktop\dataset_dft\C8H6O3\C8H6O3.chk"
 B after Tr=    -0.002153    0.000113   -0.002075
         Rot=    1.000000    0.000010    0.000332    0.000009 Ang=   0.04 deg.
 ExpMin= 3.60D-02 ExpMax= 5.48D+03 ExpMxC= 8.25D+02 IAcc=3 IRadAn=         5 AccDes= 0.00D+00
 Harris functional with IExCor=  402 and IRadAn=       5 diagonalized for initial guess.
 HarFok:  IExCor=  402 AccDes= 0.00D+00 IRadAn=         5 IDoV= 1 UseB2=F ITyADJ=14
 ICtDFT=  3500011 ScaDFX=  1.000000  1.000000  1.000000  1.000000
 FoFCou: FMM=F IPFlag=           0 FMFlag=      100000 FMFlg1=           0
         NFxFlg=           0 DoJE=T BraDBF=F KetDBF=T FulRan=T
         wScrn=  0.000000 ICntrl=       500 IOpCl=  0 I1Cent=   200000004 NGrid=           0
         NMat0=    1 NMatS0=      1 NMatT0=    0 NMatD0=    1 NMtDS0=    0 NMtDT0=    0
 Symmetry not used in FoFCou.
 Requested convergence on RMS density matrix=1.00D-08 within 128 cycles.
 Requested convergence on MAX density matrix=1.00D-06.
 Requested convergence on             energy=1.00D-06.
 No special actions if energy rises.
 EnCoef did    11 forward-backward iterations
 EnCoef did     4 forward-backward iterations
 EnCoef did     2 forward-backward iterations
 SCF Done:  E(RB3LYP) =  -533.945448270     A.U. after   18 cycles
            NFock= 18  Conv=0.51D-08     -V/T= 2.0097
 Scan completed.
 
 Summary of the potential surface scan:
   N      B16         SCF    
 ----  ---------  -----------
    1     0.5000   -533.34260
    2     0.6000   -533.79183
    3     0.7000   -534.00492
    4     0.8000   -534.09983
    5     0.9000   -534.13431
    6     1.0000   -534.13798
    7     1.1000   -534.12641
    8     1.2000   -534.10789
    9     1.3000   -534.08692
   10     1.4000   -534.06596
   11     1.5000   -534.04631
   12     1.6000   -534.02858
   13     1.7000   -534.01295
   14     1.8000   -533.99934
   15     1.9000   -533.98755
   16     2.0000   -533.97736
   17     2.1000   -533.96858
   18     2.2000   -533.96110
   19     2.3000   -533.95486
   20     2.4000   -533.94970
   21     2.5000   -533.94545
 ----  ---------  -----------
  
 1|1|UNPC-BF-202112021916|Scan|RB3LYP|6-31++G(d,p)|C8H6O3|ADMINISTRATOR
 |21-Mar-2023|1||# scan b3lyp/6-31++g(d,p) nosymm||Title Card Required|
 |0,1|C|C,1,B1|C,2,B2,1,A1|C,3,B3,2,A2,1,D1,0|C,4,B4,3,A3,2,D2,0|C,5,B5
 ,4,A4,3,D3,0|H,3,B6,2,A5,1,D4,0|H,4,B7,3,A6,2,D5,0|H,5,B8,4,A7,3,D6,0|
 C,6,B9,5,A8,4,D7,0|H,10,B10,6,A9,5,D8,0|O,10,B11,6,A10,5,D9,0|C,1,B12,
 2,A11,3,D10,0|O,13,B13,1,A12,2,D11,0|H,13,B14,1,A13,2,D12,0|O,2,B15,1,
 A14,6,D13,0|H,16,B16,2,A15,1,D14,0||B1=1.41640543|B2=1.40184266|B3=1.3
 8781378|B4=1.39983165|B5=1.39322488|B6=1.08475603|B7=1.08583956|B8=1.0
 8428977|B9=1.50117117|B10=1.09924387|B11=1.21883362|B12=1.47257773|B13
 =1.22017785|B14=1.11368052|B15=1.36399058|B16=0.5,s,20,0.1|A1=120.7071
 7149|A2=119.97851826|A3=120.49469346|A4=120.35813845|A5=118.26996991|A
 6=119.56241157|A7=121.25035101|A8=116.67023011|A9=117.10293634|A10=121
 .97992104|A11=119.51879521|A12=126.19501193|A13=115.90757059|A14=124.4
 8955885|A15=112.21443445|D1=0.20052181|D2=-0.4816753|D3=0.18978724|D4=
 179.51915901|D5=179.72238218|D6=-178.84449407|D7=-175.4323131|D8=156.5
 4726604|D9=-21.1966001|D10=-178.10748664|D11=163.53528247|D12=-16.9540
 9935|D13=178.79889123|D14=-0.8725374||Version=EM64W-G16RevA.03|HF=-533
 .3425965,-533.7918309,-534.004919,-534.099829,-534.1343062,-534.137978
 5,-534.1264073,-534.107888,-534.0869194,-534.0659612,-534.0463139,-534
 .0285844,-534.0129508,-533.9993399,-533.9875529,-533.9773608,-533.9685
 764,-533.9610994,-533.9548566,-533.9497042,-533.9454483|RMSD=7.379e-00
 9,5.010e-009,4.210e-009,4.507e-009,4.838e-009,5.180e-009,5.520e-009,6.
 195e-009,7.858e-009,6.723e-009,3.204e-009,6.734e-009,9.181e-009,7.146e
 -009,7.071e-009,9.530e-009,4.722e-009,4.092e-009,3.926e-009,9.142e-009
 ,5.051e-009|PG=C01 [X(C8H6O3)]||@


 GETTING A SIMPLE ANSWER FROM A PROFESSOR IS LIKE
 GETTING A THIMBLE OF WATER FROM A FIRE HYDRANT.
     -- PROF. LEN SHAPIRO, NDSU
 Job cpu time:       0 days  0 hours 18 minutes 52.0 seconds.
 Elapsed time:       0 days  0 hours 18 minutes 29.5 seconds.
 File lengths (MBytes):  RWF=     42 Int=      0 D2E=      0 Chk=      7 Scr=      1
 Normal termination of Gaussian 16 at Tue Mar 21 18:17:33 2023.
