 Entering Link 1 = I:\G16W\l1.exe PID=      7760.
  
 Copyright (c) 1988,1990,1992,1993,1995,1998,2003,2009,2016,
            Gaussian, Inc.  All Rights Reserved.
  
 This is part of the Gaussian(R) 16 program.  It is based on
 the Gaussian(R) 09 system (copyright 2009, Gaussian, Inc.),
 the Gaussian(R) 03 system (copyright 2003, Gaussian, Inc.),
 the Gaussian(R) 98 system (copyright 1998, Gaussian, Inc.),
 the Gaussian(R) 94 system (copyright 1995, Gaussian, Inc.),
 the Gaussian 92(TM) system (copyright 1992, Gaussian, Inc.),
 the Gaussian 90(TM) system (copyright 1990, Gaussian, Inc.),
 the Gaussian 88(TM) system (copyright 1988, Gaussian, Inc.),
 the Gaussian 86(TM) system (copyright 1986, Carnegie Mellon
 University), and the Gaussian 82(TM) system (copyright 1983,
 Carnegie Mellon University). Gaussian is a federally registered
 trademark of Gaussian, Inc.
  
 This software contains proprietary and confidential information,
 including trade secrets, belonging to Gaussian, Inc.
  
 This software is provided under written license and may be
 used, copied, transmitted, or stored only in accord with that
 written license.
  
 The following legend is applicable only to US Government
 contracts under FAR:
  
                    RESTRICTED RIGHTS LEGEND
  
 Use, reproduction and disclosure by the US Government is
 subject to restrictions as set forth in subparagraphs (a)
 and (c) of the Commercial Computer Software - Restricted
 Rights clause in FAR 52.227-19.
  
 Gaussian, Inc.
 340 Quinnipiac St., Bldg. 40, Wallingford CT 06492
  
  
 ---------------------------------------------------------------
 Warning -- This program may not be used in any manner that
 competes with the business of Gaussian, Inc. or will provide
 assistance to any competitor of Gaussian, Inc.  The licensee
 of this program is prohibited from giving any competitor of
 Gaussian, Inc. access to this program.  By using this program,
 the user acknowledges that Gaussian, Inc. is engaged in the
 business of creating and licensing software in the field of
 computational chemistry and represents and warrants to the
 licensee that it is not a competitor of Gaussian, Inc. and that
 it will not use this program in any manner prohibited above.
 ---------------------------------------------------------------
  

 Cite this work as:
 Gaussian 16, Revision A.03,
 M. J. Frisch, G. W. Trucks, H. B. Schlegel, G. E. Scuseria, 
 M. A. Robb, J. R. Cheeseman, G. Scalmani, V. Barone, 
 G. A. Petersson, H. Nakatsuji, X. Li, M. Caricato, A. V. Marenich, 
 J. Bloino, B. G. Janesko, R. Gomperts, B. Mennucci, H. P. Hratchian, 
 J. V. Ortiz, A. F. Izmaylov, J. L. Sonnenberg, D. Williams-Young, 
 F. Ding, F. Lipparini, F. Egidi, J. Goings, B. Peng, A. Petrone, 
 T. Henderson, D. Ranasinghe, V. G. Zakrzewski, J. Gao, N. Rega, 
 G. Zheng, W. Liang, M. Hada, M. Ehara, K. Toyota, R. Fukuda, 
 J. Hasegawa, M. Ishida, T. Nakajima, Y. Honda, O. Kitao, H. Nakai, 
 T. Vreven, K. Throssell, J. A. Montgomery, Jr., J. E. Peralta, 
 F. Ogliaro, M. J. Bearpark, J. J. Heyd, E. N. Brothers, K. N. Kudin, 
 V. N. Staroverov, T. A. Keith, R. Kobayashi, J. Normand, 
 K. Raghavachari, A. P. Rendell, J. C. Burant, S. S. Iyengar, 
 J. Tomasi, M. Cossi, J. M. Millam, M. Klene, C. Adamo, R. Cammi, 
 J. W. Ochterski, R. L. Martin, K. Morokuma, O. Farkas, 
 J. B. Foresman, and D. J. Fox, Gaussian, Inc., Wallingford CT, 2016.
 
 ******************************************
 Gaussian 16:  EM64W-G16RevA.03 17-Dec-2016
                21-Mar-2023 
 ******************************************
 %nprocshared=24
 Will use up to   24 processors via shared memory.
 %mem=150MW
 %chk=C:\Users\Administrator\Desktop\dataset_dft\C8H6O3\C8H6O3.chk
 --------------------------------
 # scan b3lyp/6-31++g(d,p) nosymm
 --------------------------------
 1/38=1,60=1,172=1/1,8;
 2/12=2,15=1,17=6,18=5,29=3,40=1/2;
 3/5=1,6=6,7=1111,11=2,25=1,30=1,74=-5/1,2,3;
 4//1;
 5/5=2,38=5/2;
 6/7=2,8=2,9=2,10=2,18=1,28=1/1;
 1/60=1/8(1);
 99/9=1/99;
 2/15=1,29=3/2;
 3/5=1,6=6,7=1111,11=2,25=1,30=1,74=-5/1,2,3;
 4/5=5,16=3,69=1/1;
 5/5=2,38=5/2;
 1/60=1/8(-4);
 99/9=1/99;
 -------------------
 Title Card Required
 -------------------
 Symbolic Z-matrix:
 Charge =  0 Multiplicity = 1
 C(PDBName=C,ResName=MOL,ResNum=1)
 C(PDBName=C,ResName=MOL,ResNum=1) 1    B1
 C(PDBName=C,ResName=MOL,ResNum=1) 2    B2       1    A1
 C(PDBName=C,ResName=MOL,ResNum=1) 3    B3       2    A2       1    D1       0
 C(PDBName=C,ResName=MOL,ResNum=1) 4    B4       3    A3       2    D2       0
 C(PDBName=C,ResName=MOL,ResNum=1) 5    B5       4    A4       3    D3       0
 H(PDBName=H,ResName=MOL,ResNum=1) 3    B6       2    A5       1    D4       0
 H(PDBName=H,ResName=MOL,ResNum=1) 4    B7       3    A6       2    D5       0
 H(PDBName=H,ResName=MOL,ResNum=1) 5    B8       4    A7       3    D6       0
 C(PDBName=C,ResName=MOL,ResNum=1) 6    B9       5    A8       4    D7       0
 H(PDBName=H,ResName=MOL,ResNum=1) 10   B10      6    A9       5    D8       0
 O(PDBName=O,ResName=MOL,ResNum=1) 10   B11      6    A10      5    D9       0
 C(PDBName=C,ResName=MOL,ResNum=1) 1    B12      2    A11      3    D10      0
 O(PDBName=O,ResName=MOL,ResNum=1) 13   B13      1    A12      2    D11      0
 H(PDBName=H,ResName=MOL,ResNum=1) 13   B14      1    A13      2    D12      0
 O(PDBName=O,ResName=MOL,ResNum=1) 2    B15      1    A14      6    D13      0
 H(PDBName=H,ResName=MOL,ResNum=1) 16   B16      2    A15      1    D14      0
       Variables:
  B1                    1.41641                  
  B2                    1.40184                  
  B3                    1.38781                  
  B4                    1.39983                  
  B5                    1.39322                  
  B6                    1.08476                  
  B7                    1.08584                  
  B8                    1.08429                  
  B9                    1.50117                  
  B10                   1.09924                  
  B11                   1.21883                  
  B12                   1.47258                  
  B13                   1.22018                  
  B14                   1.11368                  
  B15                   1.     Scan 20    0.1    
  B16                   0.96533                  
  A1                  120.70717                  
  A2                  119.97852                  
  A3                  120.49469                  
  A4                  120.35814                  
  A5                  118.26997                  
  A6                  119.56241                  
  A7                  121.25035                  
  A8                  116.67023                  
  A9                  117.10294                  
  A10                 121.97992                  
  A11                 119.5188                   
  A12                 126.19501                  
  A13                 115.90757                  
  A14                 124.48956                  
  A15                 112.21443                  
  D1                    0.20052                  
  D2                   -0.48168                  
  D3                    0.18979                  
  D4                  179.51916                  
  D5                  179.72238                  
  D6                 -178.84449                  
  D7                 -175.43231                  
  D8                  156.54727                  
  D9                  -21.1966                   
  D10                -178.10749                  
  D11                 163.53528                  
  D12                 -16.9541                   
  D13                 178.79889                  
  D14                  -0.87254                  
 
 Center=      0.71548259     -0.01426374      0.12716377
 Residue   1 PDB Number     1_0 MOL charge    0.00000000 layers R        AvRTP=      0.00000000      0.00000000      0.00000000
 Scan the potential surface.
 Variable   Value     No. Steps Step-Size
 -------- ----------- --------- ---------
    15       1.000000      20      0.1000
 A total of     21 points will be computed.
 ---------------------------------------------------------------------------------------------------
                            Z-MATRIX (ANGSTROMS AND DEGREES)
   CD    Cent   Atom    N1       Length/X        N2       Alpha/Y        N3        Beta/Z          J
 ---------------------------------------------------------------------------------------------------
      1      1  C 
      2      2  C        1   1.416405(     1)
      3      3  C        2   1.401843(     2)      1  120.707(    17)
      4      4  C        3   1.387814(     3)      2  119.979(    18)      1    0.201(    32)      0
      5      5  C        4   1.399832(     4)      3  120.495(    19)      2   -0.482(    33)      0
      6      6  C        5   1.393225(     5)      4  120.358(    20)      3    0.190(    34)      0
      7      7  H        3   1.084756(     6)      2  118.270(    21)      1  179.519(    35)      0
      8      8  H        4   1.085840(     7)      3  119.562(    22)      2  179.722(    36)      0
      9      9  H        5   1.084290(     8)      4  121.250(    23)      3 -178.844(    37)      0
     10     10  C        6   1.501171(     9)      5  116.670(    24)      4 -175.432(    38)      0
     11     11  H       10   1.099244(    10)      6  117.103(    25)      5  156.547(    39)      0
     12     12  O       10   1.218834(    11)      6  121.980(    26)      5  -21.197(    40)      0
     13     13  C        1   1.472578(    12)      2  119.519(    27)      3 -178.107(    41)      0
     14     14  O       13   1.220178(    13)      1  126.195(    28)      2  163.535(    42)      0
     15     15  H       13   1.113681(    14)      1  115.908(    29)      2  -16.954(    43)      0
     16     16  O        2   1.000000(    15)      1  124.490(    30)      6  178.799(    44)      0
     17     17  H       16   0.965333(    16)      2  112.214(    31)      1   -0.873(    45)      0
 ---------------------------------------------------------------------------------------------------
                         Z-Matrix orientation:                         
 ---------------------------------------------------------------------
 Center     Atomic      Atomic             Coordinates (Angstroms)
 Number     Number       Type             X           Y           Z
 ---------------------------------------------------------------------
      1          6           0        0.000000    0.000000    0.000000
      2          6           0        0.000000    0.000000    1.416405
      3          6           0        1.205288    0.000000    2.132257
      4          6           0        2.415384    0.004207    1.452790
      5          6           0        2.444256   -0.001670    0.053268
      6          6           0        1.256849   -0.007847   -0.675499
      7          1           0        1.159177    0.008018    3.216003
      8          1           0        3.344911    0.008756    2.014044
      9          1           0        3.382535   -0.017173   -0.489941
     10          6           0        1.382332   -0.120696   -2.167154
     11          1           0        0.515109   -0.517038   -2.714123
     12          8           0        2.410696    0.171714   -2.752405
     13          6           0       -1.280730    0.042319   -0.725552
     14          8           0       -1.433175    0.326596   -1.902319
     15          1           0       -2.185439   -0.220064   -0.131464
     16          8           0       -0.823924    0.022422    1.982661
     17          1           0       -1.630066    0.057973    1.452813
 ---------------------------------------------------------------------
                    Distance matrix (angstroms):
                    1          2          3          4          5
     1  C    0.000000
     2  C    1.416405   0.000000
     3  C    2.449335   1.401843   0.000000
     4  C    2.818634   2.415662   1.387814   0.000000
     5  C    2.444837   2.798667   2.420174   1.399832   0.000000
     6  C    1.426895   2.440449   2.808240   2.423213   1.393225
     7  H    3.418542   2.140632   1.084756   2.164947   3.413857
     8  H    3.904469   3.397894   2.142905   1.085840   2.157760
     9  H    3.417877   3.882782   3.408317   2.170263   1.084290
    10  C    2.573318   3.842825   4.304747   3.766535   2.464168
    11  H    2.810539   4.194512   4.922507   4.609327   3.412574
    12  O    3.662878   4.818706   5.034126   4.208532   2.811226
    13  C    1.472578   2.496005   3.788027   4.290441   3.805787
    14  O    2.404054   3.629682   4.831766   5.115868   4.355061
    15  H    2.200421   2.687093   4.082877   4.871112   4.638523
    16  O    2.147161   1.000000   2.034843   3.282410   3.795279
    17  H    2.184295   1.631503   2.916203   4.045808   4.308409
                    6          7          8          9         10
     6  C    0.000000
     7  H    3.892760   0.000000
     8  H    3.404985   2.494423   0.000000
     9  H    2.133791   4.321803   2.504402   0.000000
    10  C    1.501171   5.389317   4.620702   2.612388   0.000000
    11  H    2.228327   5.988063   5.535323   3.663193   1.099244
    12  O    2.382676   6.100409   4.859871   2.469594   1.218834
    13  C    2.538568   4.635750   5.376157   4.669592   3.032603
    14  O    2.975428   5.746217   6.186197   5.030314   2.863091
    15  H    3.491468   4.737511   5.936357   5.583189   4.108880
    16  O    3.375848   2.335386   4.168976   4.879512   4.702022
    17  H    3.587244   3.300183   5.006776   5.376441   4.712815
                   11         12         13         14         15
    11  H    0.000000
    12  O    2.017199   0.000000
    13  C    2.737212   4.213253   0.000000
    14  O    2.273006   3.939794   1.220178   0.000000
    15  H    3.748503   5.305401   1.113681   2.000167   0.000000
    16  O    4.913635   5.736368   2.746541   3.944209   2.526271
    17  H    4.721840   5.833057   2.206254   3.371623   1.701669
                   16         17
    16  O    0.000000
    17  H    0.965333   0.000000
 Symmetry turned off by external request.
 Stoichiometry    C8H6O3
 Framework group  C1[X(C8H6O3)]
 Deg. of freedom    45
 Full point group                 C1      NOp   1
 Rotational constants (GHZ):           1.5689592           1.1353186           0.6619209
 Standard basis: 6-31++G(d,p) (6D, 7F)
   245 basis functions,   400 primitive gaussians,   245 cartesian basis functions
    39 alpha electrons       39 beta electrons
       nuclear repulsion energy       576.0732318113 Hartrees.
 NAtoms=   17 NActive=   17 NUniq=   17 SFac= 1.00D+00 NAtFMM=   60 NAOKFM=F Big=F
 Integral buffers will be    131072 words long.
 Raffenetti 2 integral format.
 Two-electron integral symmetry is turned off.
 One-electron integrals computed using PRISM.
 NBasis=   245 RedAO= T EigKep=  2.17D-06  NBF=   245
 NBsUse=   244 1.00D-06 EigRej=  6.41D-07 NBFU=   244
 ExpMin= 3.60D-02 ExpMax= 5.48D+03 ExpMxC= 8.25D+02 IAcc=3 IRadAn=         5 AccDes= 0.00D+00
 Harris functional with IExCor=  402 and IRadAn=       5 diagonalized for initial guess.
 HarFok:  IExCor=  402 AccDes= 0.00D+00 IRadAn=         5 IDoV= 1 UseB2=F ITyADJ=14
 ICtDFT=  3500011 ScaDFX=  1.000000  1.000000  1.000000  1.000000
 FoFCou: FMM=F IPFlag=           0 FMFlag=      100000 FMFlg1=           0
         NFxFlg=           0 DoJE=T BraDBF=F KetDBF=T FulRan=T
         wScrn=  0.000000 ICntrl=       500 IOpCl=  0 I1Cent=   200000004 NGrid=           0
         NMat0=    1 NMatS0=      1 NMatT0=    0 NMatD0=    1 NMtDS0=    0 NMtDT0=    0
 Symmetry not used in FoFCou.
 Requested convergence on RMS density matrix=1.00D-08 within 128 cycles.
 Requested convergence on MAX density matrix=1.00D-06.
 Requested convergence on             energy=1.00D-06.
 No special actions if energy rises.
 SCF Done:  E(RB3LYP) =  -533.911354268     A.U. after   16 cycles
            NFock= 16  Conv=0.44D-08     -V/T= 2.0054

 **********************************************************************

            Population analysis using the SCF density.

 **********************************************************************

 Alpha  occ. eigenvalues --  -19.27536 -19.17055 -19.15354 -10.30636 -10.30311
 Alpha  occ. eigenvalues --  -10.27744 -10.22449 -10.22287 -10.21591 -10.20391
 Alpha  occ. eigenvalues --  -10.20192  -1.33345  -1.06614  -1.04586  -0.87828
 Alpha  occ. eigenvalues --   -0.82953  -0.77983  -0.74785  -0.67921  -0.64582
 Alpha  occ. eigenvalues --   -0.61890  -0.60069  -0.58139  -0.54706  -0.51802
 Alpha  occ. eigenvalues --   -0.48340  -0.46999  -0.45515  -0.44239  -0.42389
 Alpha  occ. eigenvalues --   -0.41630  -0.39600  -0.38634  -0.37074  -0.35569
 Alpha  occ. eigenvalues --   -0.28666  -0.28101  -0.25426  -0.23515
 Alpha virt. eigenvalues --   -0.09872  -0.04674  -0.03577  -0.00789   0.00569
 Alpha virt. eigenvalues --    0.01359   0.01958   0.02921   0.03203   0.03442
 Alpha virt. eigenvalues --    0.04491   0.05274   0.05763   0.06449   0.07798
 Alpha virt. eigenvalues --    0.08369   0.09349   0.09990   0.10573   0.10927
 Alpha virt. eigenvalues --    0.11236   0.11440   0.11815   0.12151   0.12763
 Alpha virt. eigenvalues --    0.13757   0.14668   0.15279   0.15764   0.16186
 Alpha virt. eigenvalues --    0.17103   0.17213   0.17939   0.18109   0.19449
 Alpha virt. eigenvalues --    0.20004   0.20994   0.21156   0.21713   0.23013
 Alpha virt. eigenvalues --    0.23830   0.24501   0.25023   0.25226   0.25701
 Alpha virt. eigenvalues --    0.26917   0.27321   0.27955   0.28634   0.29864
 Alpha virt. eigenvalues --    0.29979   0.30230   0.31062   0.31848   0.32295
 Alpha virt. eigenvalues --    0.33379   0.33522   0.34462   0.35548   0.36818
 Alpha virt. eigenvalues --    0.37571   0.38253   0.38901   0.41130   0.42441
 Alpha virt. eigenvalues --    0.44152   0.48127   0.50286   0.55581   0.58912
 Alpha virt. eigenvalues --    0.61617   0.64791   0.67087   0.68787   0.70850
 Alpha virt. eigenvalues --    0.71495   0.72175   0.72929   0.74241   0.74660
 Alpha virt. eigenvalues --    0.75747   0.76739   0.80088   0.82682   0.83491
 Alpha virt. eigenvalues --    0.84312   0.86557   0.89667   0.90966   0.92383
 Alpha virt. eigenvalues --    0.96843   0.98471   1.00875   1.01503   1.05041
 Alpha virt. eigenvalues --    1.06417   1.07536   1.08524   1.12082   1.13262
 Alpha virt. eigenvalues --    1.14299   1.15989   1.17389   1.18856   1.20094
 Alpha virt. eigenvalues --    1.22723   1.23360   1.24270   1.26465   1.27616
 Alpha virt. eigenvalues --    1.30378   1.30663   1.33336   1.34659   1.35131
 Alpha virt. eigenvalues --    1.36135   1.36605   1.38250   1.39763   1.44239
 Alpha virt. eigenvalues --    1.45067   1.46627   1.49088   1.50095   1.51648
 Alpha virt. eigenvalues --    1.53996   1.65927   1.67433   1.70927   1.73744
 Alpha virt. eigenvalues --    1.74263   1.75633   1.76761   1.81160   1.83738
 Alpha virt. eigenvalues --    1.86705   1.88331   1.90408   1.91123   1.93332
 Alpha virt. eigenvalues --    1.96174   1.98172   1.99538   2.01852   2.03295
 Alpha virt. eigenvalues --    2.03846   2.08684   2.10389   2.13899   2.18351
 Alpha virt. eigenvalues --    2.19913   2.21968   2.24459   2.26722   2.28140
 Alpha virt. eigenvalues --    2.29565   2.35897   2.37155   2.42160   2.43672
 Alpha virt. eigenvalues --    2.45120   2.46733   2.48108   2.53068   2.54142
 Alpha virt. eigenvalues --    2.54404   2.55938   2.60335   2.61507   2.61947
 Alpha virt. eigenvalues --    2.62749   2.66125   2.71052   2.74539   2.75380
 Alpha virt. eigenvalues --    2.81083   2.82441   2.88313   2.91413   2.97534
 Alpha virt. eigenvalues --    3.04561   3.05561   3.11653   3.15206   3.19743
 Alpha virt. eigenvalues --    3.23189   3.29109   3.40343   3.42927   3.48664
 Alpha virt. eigenvalues --    3.52101   3.64470   3.71303   3.89480   4.20709
 Alpha virt. eigenvalues --    4.22169   4.29054   4.30579   4.34655   4.47256
 Alpha virt. eigenvalues --    4.49791   4.55937   4.61724   4.90926   5.17310
          Condensed to atoms (all electrons):
               1          2          3          4          5          6
     1  C   14.774589  -0.798721  -2.941748   0.967275  -2.806325  -3.188602
     2  C   -0.798721  10.099918   0.238566   0.316767  -0.069637  -4.501752
     3  C   -2.941748   0.238566  10.398692  -0.813065  -1.414056   0.038873
     4  C    0.967275   0.316767  -0.813065   6.717307  -0.168799  -1.440269
     5  C   -2.806325  -0.069637  -1.414056  -0.168799   9.386286   2.861198
     6  C   -3.188602  -4.501752   0.038873  -1.440269   2.861198  15.432548
     7  H   -0.050101  -0.065274   0.435047  -0.119671   0.041822   0.075942
     8  H    0.047505  -0.008994  -0.062239   0.400898  -0.084872  -0.009639
     9  H    0.144258   0.032445  -0.032531  -0.054673   0.236191   0.029199
    10  C    1.020133   0.087395   0.877185  -0.374660  -1.501845  -1.672137
    11  H    0.190184   0.032475   0.003872   0.018501  -0.040305  -0.401140
    12  O    0.028265  -0.005676   0.002198   0.110317  -0.029196  -0.254630
    13  C   -0.790492   1.270069  -0.514849   0.538468  -0.285421  -1.680726
    14  O   -0.002195   0.143740   0.055713  -0.008265  -0.131761  -0.364688
    15  H   -0.505223   0.411103   0.113072   0.009844  -0.110355  -0.332945
    16  O    0.375116  -0.179753  -0.718782   0.104493   0.015032   0.054761
    17  H   -0.205867   0.088943   0.031106   0.012097   0.067518   0.037866
               7          8          9         10         11         12
     1  C   -0.050101   0.047505   0.144258   1.020133   0.190184   0.028265
     2  C   -0.065274  -0.008994   0.032445   0.087395   0.032475  -0.005676
     3  C    0.435047  -0.062239  -0.032531   0.877185   0.003872   0.002198
     4  C   -0.119671   0.400898  -0.054673  -0.374660   0.018501   0.110317
     5  C    0.041822  -0.084872   0.236191  -1.501845  -0.040305  -0.029196
     6  C    0.075942  -0.009639   0.029199  -1.672137  -0.401140  -0.254630
     7  H    0.607596  -0.016331  -0.002774   0.014299   0.000151  -0.000076
     8  H   -0.016331   0.616260  -0.009680  -0.008397   0.000380   0.002018
     9  H   -0.002774  -0.009680   0.577891  -0.061358   0.006163  -0.004110
    10  C    0.014299  -0.008397  -0.061358   7.067382   0.426992   0.411852
    11  H    0.000151   0.000380   0.006163   0.426992   0.677602  -0.065028
    12  O   -0.000076   0.002018  -0.004110   0.411852  -0.065028   8.129608
    13  C   -0.024416   0.011005  -0.006009  -0.641397   0.011656   0.030483
    14  O    0.000513  -0.000133  -0.001298   0.093438  -0.024742  -0.000085
    15  H    0.002222  -0.000127  -0.000815   0.051043   0.004901   0.000573
    16  O   -0.039640   0.001251   0.000881  -0.004229  -0.000772   0.000237
    17  H   -0.002876  -0.000060   0.000523  -0.035163  -0.002557  -0.000463
              13         14         15         16         17
     1  C   -0.790492  -0.002195  -0.505223   0.375116  -0.205867
     2  C    1.270069   0.143740   0.411103  -0.179753   0.088943
     3  C   -0.514849   0.055713   0.113072  -0.718782   0.031106
     4  C    0.538468  -0.008265   0.009844   0.104493   0.012097
     5  C   -0.285421  -0.131761  -0.110355   0.015032   0.067518
     6  C   -1.680726  -0.364688  -0.332945   0.054761   0.037866
     7  H   -0.024416   0.000513   0.002222  -0.039640  -0.002876
     8  H    0.011005  -0.000133  -0.000127   0.001251  -0.000060
     9  H   -0.006009  -0.001298  -0.000815   0.000881   0.000523
    10  C   -0.641397   0.093438   0.051043  -0.004229  -0.035163
    11  H    0.011656  -0.024742   0.004901  -0.000772  -0.002557
    12  O    0.030483  -0.000085   0.000573   0.000237  -0.000463
    13  C    7.615182   0.428723   0.512918  -0.040167  -0.011989
    14  O    0.428723   8.246958  -0.030644  -0.003001  -0.001138
    15  H    0.512918  -0.030644   0.934947  -0.069677  -0.016975
    16  O   -0.040167  -0.003001  -0.069677   8.451597   0.198438
    17  H   -0.011989  -0.001138  -0.016975   0.198438   0.449435
 Mulliken charges:
               1
     1  C   -0.258051
     2  C   -1.091613
     3  C    0.302947
     4  C   -0.216563
     5  C    0.034524
     6  C    1.316140
     7  H    0.143568
     8  H    0.121155
     9  H    0.145698
    10  C    0.249467
    11  H    0.161671
    12  O   -0.356286
    13  C   -0.423038
    14  O   -0.401135
    15  H    0.026138
    16  O   -0.145785
    17  H    0.391161
 Sum of Mulliken charges =   0.00000
 Mulliken charges with hydrogens summed into heavy atoms:
               1
     1  C   -0.258051
     2  C   -1.091613
     3  C    0.446515
     4  C   -0.095408
     5  C    0.180223
     6  C    1.316140
    10  C    0.411138
    12  O   -0.356286
    13  C   -0.396900
    14  O   -0.401135
    16  O    0.245377
 Electronic spatial extent (au):  <R**2>=           1731.2538
 Charge=              0.0000 electrons
 Dipole moment (field-independent basis, Debye):
    X=             -2.5800    Y=             -1.0532    Z=              6.0451  Tot=              6.6565
 Quadrupole moment (field-independent basis, Debye-Ang):
   XX=            -63.7127   YY=            -64.2769   ZZ=            -72.3061
   XY=             -0.4277   XZ=              3.7169   YZ=              3.1946
 Traceless Quadrupole moment (field-independent basis, Debye-Ang):
   XX=              3.0526   YY=              2.4883   ZZ=             -5.5409
   XY=             -0.4277   XZ=              3.7169   YZ=              3.1946
 Octapole moment (field-independent basis, Debye-Ang**2):
  XXX=           -138.4922  YYY=             -5.4125  ZZZ=             62.4720  XYY=            -48.4308
  XXY=             -6.0523  XXZ=             49.8604  XZZ=            -57.1581  YZZ=             -8.7522
  YYZ=              3.4616  XYZ=              1.1803
 Hexadecapole moment (field-independent basis, Debye-Ang**3):
 XXXX=          -1034.5183 YYYY=            -76.7782 ZZZZ=          -1196.7135 XXXY=             -1.7276
 XXXZ=             93.4694 YYYX=              3.9842 YYYZ=             11.0333 ZZZX=            112.1041
 ZZZY=             27.9960 XXYY=           -200.5092 XXZZ=           -438.3922 YYZZ=           -202.0823
 XXYZ=             15.2736 YYXZ=              1.8324 ZZXY=             -2.8540
 N-N= 5.760732318113D+02 E-N=-2.397999261187D+03  KE= 5.310198306947D+02
 Variable Step   Value    
 -------- ---- -----------
    15       1    2.078699
 ---------------------------------------------------------------------------------------------------
                            Z-MATRIX (ANGSTROMS AND DEGREES)
   CD    Cent   Atom    N1       Length/X        N2       Alpha/Y        N3        Beta/Z          J
 ---------------------------------------------------------------------------------------------------
      1      1  C 
      2      2  C        1   1.416405(     1)
      3      3  C        2   1.401843(     2)      1  120.707(    17)
      4      4  C        3   1.387814(     3)      2  119.979(    18)      1    0.201(    32)      0
      5      5  C        4   1.399832(     4)      3  120.495(    19)      2   -0.482(    33)      0
      6      6  C        5   1.393225(     5)      4  120.358(    20)      3    0.190(    34)      0
      7      7  H        3   1.084756(     6)      2  118.270(    21)      1  179.519(    35)      0
      8      8  H        4   1.085840(     7)      3  119.562(    22)      2  179.722(    36)      0
      9      9  H        5   1.084290(     8)      4  121.250(    23)      3 -178.844(    37)      0
     10     10  C        6   1.501171(     9)      5  116.670(    24)      4 -175.432(    38)      0
     11     11  H       10   1.099244(    10)      6  117.103(    25)      5  156.547(    39)      0
     12     12  O       10   1.218834(    11)      6  121.980(    26)      5  -21.197(    40)      0
     13     13  C        1   1.472578(    12)      2  119.519(    27)      3 -178.107(    41)      0
     14     14  O       13   1.220178(    13)      1  126.195(    28)      2  163.535(    42)      0
     15     15  H       13   1.113681(    14)      1  115.908(    29)      2  -16.954(    43)      0
     16     16  O        2   1.100000(    15)      1  124.490(    30)      6  178.799(    44)      0
     17     17  H       16   0.965333(    16)      2  112.214(    31)      1   -0.873(    45)      0
 ---------------------------------------------------------------------------------------------------
                         Z-Matrix orientation:                         
 ---------------------------------------------------------------------
 Center     Atomic      Atomic             Coordinates (Angstroms)
 Number     Number       Type             X           Y           Z
 ---------------------------------------------------------------------
      1          6           0        0.000000    0.000000    0.000000
      2          6           0        0.000000    0.000000    1.416405
      3          6           0        1.205288    0.000000    2.132257
      4          6           0        2.415384    0.004207    1.452790
      5          6           0        2.444256   -0.001670    0.053268
      6          6           0        1.256849   -0.007847   -0.675499
      7          1           0        1.159177    0.008018    3.216003
      8          1           0        3.344911    0.008756    2.014044
      9          1           0        3.382535   -0.017173   -0.489941
     10          6           0        1.382332   -0.120696   -2.167154
     11          1           0        0.515109   -0.517038   -2.714123
     12          8           0        2.410696    0.171714   -2.752405
     13          6           0       -1.280730    0.042319   -0.725552
     14          8           0       -1.433175    0.326596   -1.902319
     15          1           0       -2.185439   -0.220064   -0.131464
     16          8           0       -0.906317    0.024664    2.039287
     17          1           0       -1.712459    0.060215    1.509439
 ---------------------------------------------------------------------
                    Distance matrix (angstroms):
                    1          2          3          4          5
     1  C    0.000000
     2  C    1.416405   0.000000
     3  C    2.449335   1.401843   0.000000
     4  C    2.818634   2.415662   1.387814   0.000000
     5  C    2.444837   2.798667   2.420174   1.399832   0.000000
     6  C    1.426895   2.440449   2.808240   2.423213   1.393225
     7  H    3.418542   2.140632   1.084756   2.164947   3.413857
     8  H    3.904469   3.397894   2.142905   1.085840   2.157760
     9  H    3.417877   3.882782   3.408317   2.170263   1.084290
    10  C    2.573318   3.842825   4.304747   3.766535   2.464168
    11  H    2.810539   4.194512   4.922507   4.609327   3.412574
    12  O    3.662878   4.818706   5.034126   4.208532   2.811226
    13  C    1.472578   2.496005   3.788027   4.290441   3.805787
    14  O    2.404054   3.629682   4.831766   5.115868   4.355061
    15  H    2.200421   2.687093   4.082877   4.871112   4.638523
    16  O    2.231750   1.100000   2.113794   3.373143   3.895036
    17  H    2.283538   1.716041   2.984087   4.128612   4.404832
                    6          7          8          9         10
     6  C    0.000000
     7  H    3.892760   0.000000
     8  H    3.404985   2.494423   0.000000
     9  H    2.133791   4.321803   2.504402   0.000000
    10  C    1.501171   5.389317   4.620702   2.612388   0.000000
    11  H    2.228327   5.988063   5.535323   3.663193   1.099244
    12  O    2.382676   6.100409   4.859871   2.469594   1.218834
    13  C    2.538568   4.635750   5.376157   4.669592   3.032603
    14  O    2.975428   5.746217   6.186197   5.030314   2.863091
    15  H    3.491468   4.737511   5.936357   5.583189   4.108880
    16  O    3.471369   2.377225   4.251333   4.979257   4.790948
    17  H    3.687190   3.340864   5.082742   5.473799   4.809136
                   11         12         13         14         15
    11  H    0.000000
    12  O    2.017199   0.000000
    13  C    2.737212   4.213253   0.000000
    14  O    2.273006   3.939794   1.220178   0.000000
    15  H    3.748503   5.305401   1.113681   2.000167   0.000000
    16  O    4.990871   5.829624   2.790131   3.988108   2.531443
    17  H    4.809756   5.930949   2.276378   3.433519   1.730557
                   16         17
    16  O    0.000000
    17  H    0.965333   0.000000
 Symmetry turned off by external request.
 Stoichiometry    C8H6O3
 Framework group  C1[X(C8H6O3)]
 Deg. of freedom    45
 Full point group                 C1      NOp   1
 Rotational constants (GHZ):           1.5590444           1.1192955           0.6546999
 Standard basis: 6-31++G(d,p) (6D, 7F)
   245 basis functions,   400 primitive gaussians,   245 cartesian basis functions
    39 alpha electrons       39 beta electrons
       nuclear repulsion energy       571.3988063043 Hartrees.
 NAtoms=   17 NActive=   17 NUniq=   17 SFac= 1.00D+00 NAtFMM=   60 NAOKFM=F Big=F
 Integral buffers will be    131072 words long.
 Raffenetti 2 integral format.
 Two-electron integral symmetry is turned off.
 One-electron integrals computed using PRISM.
 NBasis=   245 RedAO= T EigKep=  2.12D-06  NBF=   245
 NBsUse=   244 1.00D-06 EigRej=  6.01D-07 NBFU=   244
 Initial guess from the checkpoint file:  "C:\Users\Administrator\Desktop\dataset_dft\C8H6O3\C8H6O3.chk"
 B after Tr=    -0.018361    0.000722    0.010226
         Rot=    1.000000    0.000082    0.000874    0.000081 Ang=   0.10 deg.
 ExpMin= 3.60D-02 ExpMax= 5.48D+03 ExpMxC= 8.25D+02 IAcc=3 IRadAn=         5 AccDes= 0.00D+00
 Harris functional with IExCor=  402 and IRadAn=       5 diagonalized for initial guess.
 HarFok:  IExCor=  402 AccDes= 0.00D+00 IRadAn=         5 IDoV= 1 UseB2=F ITyADJ=14
 ICtDFT=  3500011 ScaDFX=  1.000000  1.000000  1.000000  1.000000
 FoFCou: FMM=F IPFlag=           0 FMFlag=      100000 FMFlg1=           0
         NFxFlg=           0 DoJE=T BraDBF=F KetDBF=T FulRan=T
         wScrn=  0.000000 ICntrl=       500 IOpCl=  0 I1Cent=   200000004 NGrid=           0
         NMat0=    1 NMatS0=      1 NMatT0=    0 NMatD0=    1 NMtDS0=    0 NMtDT0=    0
 Symmetry not used in FoFCou.
 Requested convergence on RMS density matrix=1.00D-08 within 128 cycles.
 Requested convergence on MAX density matrix=1.00D-06.
 Requested convergence on             energy=1.00D-06.
 No special actions if energy rises.
 SCF Done:  E(RB3LYP) =  -534.046498524     A.U. after   14 cycles
            NFock= 14  Conv=0.73D-08     -V/T= 2.0072
 Variable Step   Value    
 -------- ---- -----------
    15       2    2.267671
 ---------------------------------------------------------------------------------------------------
                            Z-MATRIX (ANGSTROMS AND DEGREES)
   CD    Cent   Atom    N1       Length/X        N2       Alpha/Y        N3        Beta/Z          J
 ---------------------------------------------------------------------------------------------------
      1      1  C 
      2      2  C        1   1.416405(     1)
      3      3  C        2   1.401843(     2)      1  120.707(    17)
      4      4  C        3   1.387814(     3)      2  119.979(    18)      1    0.201(    32)      0
      5      5  C        4   1.399832(     4)      3  120.495(    19)      2   -0.482(    33)      0
      6      6  C        5   1.393225(     5)      4  120.358(    20)      3    0.190(    34)      0
      7      7  H        3   1.084756(     6)      2  118.270(    21)      1  179.519(    35)      0
      8      8  H        4   1.085840(     7)      3  119.562(    22)      2  179.722(    36)      0
      9      9  H        5   1.084290(     8)      4  121.250(    23)      3 -178.844(    37)      0
     10     10  C        6   1.501171(     9)      5  116.670(    24)      4 -175.432(    38)      0
     11     11  H       10   1.099244(    10)      6  117.103(    25)      5  156.547(    39)      0
     12     12  O       10   1.218834(    11)      6  121.980(    26)      5  -21.197(    40)      0
     13     13  C        1   1.472578(    12)      2  119.519(    27)      3 -178.107(    41)      0
     14     14  O       13   1.220178(    13)      1  126.195(    28)      2  163.535(    42)      0
     15     15  H       13   1.113681(    14)      1  115.908(    29)      2  -16.954(    43)      0
     16     16  O        2   1.200000(    15)      1  124.490(    30)      6  178.799(    44)      0
     17     17  H       16   0.965333(    16)      2  112.214(    31)      1   -0.873(    45)      0
 ---------------------------------------------------------------------------------------------------
                         Z-Matrix orientation:                         
 ---------------------------------------------------------------------
 Center     Atomic      Atomic             Coordinates (Angstroms)
 Number     Number       Type             X           Y           Z
 ---------------------------------------------------------------------
      1          6           0        0.000000    0.000000    0.000000
      2          6           0        0.000000    0.000000    1.416405
      3          6           0        1.205288    0.000000    2.132257
      4          6           0        2.415384    0.004207    1.452790
      5          6           0        2.444256   -0.001670    0.053268
      6          6           0        1.256849   -0.007847   -0.675499
      7          1           0        1.159177    0.008018    3.216003
      8          1           0        3.344911    0.008756    2.014044
      9          1           0        3.382535   -0.017173   -0.489941
     10          6           0        1.382332   -0.120696   -2.167154
     11          1           0        0.515109   -0.517038   -2.714123
     12          8           0        2.410696    0.171714   -2.752405
     13          6           0       -1.280730    0.042319   -0.725552
     14          8           0       -1.433175    0.326596   -1.902319
     15          1           0       -2.185439   -0.220064   -0.131464
     16          8           0       -0.988709    0.026906    2.095913
     17          1           0       -1.794851    0.062458    1.566065
 ---------------------------------------------------------------------
                    Distance matrix (angstroms):
                    1          2          3          4          5
     1  C    0.000000
     2  C    1.416405   0.000000
     3  C    2.449335   1.401843   0.000000
     4  C    2.818634   2.415662   1.387814   0.000000
     5  C    2.444837   2.798667   2.420174   1.399832   0.000000
     6  C    1.426895   2.440449   2.808240   2.423213   1.393225
     7  H    3.418542   2.140632   1.084756   2.164947   3.413857
     8  H    3.904469   3.397894   2.142905   1.085840   2.157760
     9  H    3.417877   3.882782   3.408317   2.170263   1.084290
    10  C    2.573318   3.842825   4.304747   3.766535   2.464168
    11  H    2.810539   4.194512   4.922507   4.609327   3.412574
    12  O    3.662878   4.818706   5.034126   4.208532   2.811226
    13  C    1.472578   2.496005   3.788027   4.290441   3.805787
    14  O    2.404054   3.629682   4.831766   5.115868   4.355061
    15  H    2.200421   2.687093   4.082877   4.871112   4.638523
    16  O    2.317568   1.200000   2.194463   3.464387   3.994805
    17  H    2.382845   1.802162   3.053737   4.212162   4.501411
                    6          7          8          9         10
     6  C    0.000000
     7  H    3.892760   0.000000
     8  H    3.404985   2.494423   0.000000
     9  H    2.133791   4.321803   2.504402   0.000000
    10  C    1.501171   5.389317   4.620702   2.612388   0.000000
    11  H    2.228327   5.988063   5.535323   3.663193   1.099244
    12  O    2.382676   6.100409   4.859871   2.469594   1.218834
    13  C    2.538568   4.635750   5.376157   4.669592   3.032603
    14  O    2.975428   5.746217   6.186197   5.030314   2.863091
    15  H    3.491468   4.737511   5.936357   5.583189   4.108880
    16  O    3.567136   2.422472   4.334432   5.079012   4.880303
    17  H    3.787139   3.384013   5.159528   5.571250   4.905604
                   11         12         13         14         15
    11  H    0.000000
    12  O    2.017199   0.000000
    13  C    2.737212   4.213253   0.000000
    14  O    2.273006   3.939794   1.220178   0.000000
    15  H    3.748503   5.305401   1.113681   2.000167   0.000000
    16  O    5.068904   5.923100   2.836579   4.034008   2.540544
    17  H    4.898136   6.028909   2.348667   3.497180   1.764647
                   16         17
    16  O    0.000000
    17  H    0.965333   0.000000
 Symmetry turned off by external request.
 Stoichiometry    C8H6O3
 Framework group  C1[X(C8H6O3)]
 Deg. of freedom    45
 Full point group                 C1      NOp   1
 Rotational constants (GHZ):           1.5498186           1.1027060           0.6473847
 Standard basis: 6-31++G(d,p) (6D, 7F)
   245 basis functions,   400 primitive gaussians,   245 cartesian basis functions
    39 alpha electrons       39 beta electrons
       nuclear repulsion energy       567.2039813644 Hartrees.
 NAtoms=   17 NActive=   17 NUniq=   17 SFac= 1.00D+00 NAtFMM=   60 NAOKFM=F Big=F
 Integral buffers will be    131072 words long.
 Raffenetti 2 integral format.
 Two-electron integral symmetry is turned off.
 One-electron integrals computed using PRISM.
 NBasis=   245 RedAO= T EigKep=  2.08D-06  NBF=   245
 NBsUse=   244 1.00D-06 EigRej=  5.69D-07 NBFU=   244
 Initial guess from the checkpoint file:  "C:\Users\Administrator\Desktop\dataset_dft\C8H6O3\C8H6O3.chk"
 B after Tr=    -0.018335    0.000713    0.010280
         Rot=    1.000000    0.000081    0.000865    0.000079 Ang=   0.10 deg.
 ExpMin= 3.60D-02 ExpMax= 5.48D+03 ExpMxC= 8.25D+02 IAcc=3 IRadAn=         5 AccDes= 0.00D+00
 Harris functional with IExCor=  402 and IRadAn=       5 diagonalized for initial guess.
 HarFok:  IExCor=  402 AccDes= 0.00D+00 IRadAn=         5 IDoV= 1 UseB2=F ITyADJ=14
 ICtDFT=  3500011 ScaDFX=  1.000000  1.000000  1.000000  1.000000
 FoFCou: FMM=F IPFlag=           0 FMFlag=      100000 FMFlg1=           0
         NFxFlg=           0 DoJE=T BraDBF=F KetDBF=T FulRan=T
         wScrn=  0.000000 ICntrl=       500 IOpCl=  0 I1Cent=   200000004 NGrid=           0
         NMat0=    1 NMatS0=      1 NMatT0=    0 NMatD0=    1 NMtDS0=    0 NMtDT0=    0
 Symmetry not used in FoFCou.
 Requested convergence on RMS density matrix=1.00D-08 within 128 cycles.
 Requested convergence on MAX density matrix=1.00D-06.
 Requested convergence on             energy=1.00D-06.
 No special actions if energy rises.
 SCF Done:  E(RB3LYP) =  -534.110950161     A.U. after   14 cycles
            NFock= 14  Conv=0.51D-08     -V/T= 2.0083
 Variable Step   Value    
 -------- ---- -----------
    15       3    2.456644
 ---------------------------------------------------------------------------------------------------
                            Z-MATRIX (ANGSTROMS AND DEGREES)
   CD    Cent   Atom    N1       Length/X        N2       Alpha/Y        N3        Beta/Z          J
 ---------------------------------------------------------------------------------------------------
      1      1  C 
      2      2  C        1   1.416405(     1)
      3      3  C        2   1.401843(     2)      1  120.707(    17)
      4      4  C        3   1.387814(     3)      2  119.979(    18)      1    0.201(    32)      0
      5      5  C        4   1.399832(     4)      3  120.495(    19)      2   -0.482(    33)      0
      6      6  C        5   1.393225(     5)      4  120.358(    20)      3    0.190(    34)      0
      7      7  H        3   1.084756(     6)      2  118.270(    21)      1  179.519(    35)      0
      8      8  H        4   1.085840(     7)      3  119.562(    22)      2  179.722(    36)      0
      9      9  H        5   1.084290(     8)      4  121.250(    23)      3 -178.844(    37)      0
     10     10  C        6   1.501171(     9)      5  116.670(    24)      4 -175.432(    38)      0
     11     11  H       10   1.099244(    10)      6  117.103(    25)      5  156.547(    39)      0
     12     12  O       10   1.218834(    11)      6  121.980(    26)      5  -21.197(    40)      0
     13     13  C        1   1.472578(    12)      2  119.519(    27)      3 -178.107(    41)      0
     14     14  O       13   1.220178(    13)      1  126.195(    28)      2  163.535(    42)      0
     15     15  H       13   1.113681(    14)      1  115.908(    29)      2  -16.954(    43)      0
     16     16  O        2   1.300000(    15)      1  124.490(    30)      6  178.799(    44)      0
     17     17  H       16   0.965333(    16)      2  112.214(    31)      1   -0.873(    45)      0
 ---------------------------------------------------------------------------------------------------
                         Z-Matrix orientation:                         
 ---------------------------------------------------------------------
 Center     Atomic      Atomic             Coordinates (Angstroms)
 Number     Number       Type             X           Y           Z
 ---------------------------------------------------------------------
      1          6           0        0.000000    0.000000    0.000000
      2          6           0        0.000000    0.000000    1.416405
      3          6           0        1.205288    0.000000    2.132257
      4          6           0        2.415384    0.004207    1.452790
      5          6           0        2.444256   -0.001670    0.053268
      6          6           0        1.256849   -0.007847   -0.675499
      7          1           0        1.159177    0.008018    3.216003
      8          1           0        3.344911    0.008756    2.014044
      9          1           0        3.382535   -0.017173   -0.489941
     10          6           0        1.382332   -0.120696   -2.167154
     11          1           0        0.515109   -0.517038   -2.714123
     12          8           0        2.410696    0.171714   -2.752405
     13          6           0       -1.280730    0.042319   -0.725552
     14          8           0       -1.433175    0.326596   -1.902319
     15          1           0       -2.185439   -0.220064   -0.131464
     16          8           0       -1.071102    0.029148    2.152538
     17          1           0       -1.877244    0.064700    1.622690
 ---------------------------------------------------------------------
                    Distance matrix (angstroms):
                    1          2          3          4          5
     1  C    0.000000
     2  C    1.416405   0.000000
     3  C    2.449335   1.401843   0.000000
     4  C    2.818634   2.415662   1.387814   0.000000
     5  C    2.444837   2.798667   2.420174   1.399832   0.000000
     6  C    1.426895   2.440449   2.808240   2.423213   1.393225
     7  H    3.418542   2.140632   1.084756   2.164947   3.413857
     8  H    3.904469   3.397894   2.142905   1.085840   2.157760
     9  H    3.417877   3.882782   3.408317   2.170263   1.084290
    10  C    2.573318   3.842825   4.304747   3.766535   2.464168
    11  H    2.810539   4.194512   4.922507   4.609327   3.412574
    12  O    3.662878   4.818706   5.034126   4.208532   2.811226
    13  C    1.472578   2.496005   3.788027   4.290441   3.805787
    14  O    2.404054   3.629682   4.831766   5.115868   4.355061
    15  H    2.200421   2.687093   4.082877   4.871112   4.638523
    16  O    2.404481   1.300000   2.276667   3.556101   4.094585
    17  H    2.482207   1.889651   3.125035   4.296415   4.598136
                    6          7          8          9         10
     6  C    0.000000
     7  H    3.892760   0.000000
     8  H    3.404985   2.494423   0.000000
     9  H    2.133791   4.321803   2.504402   0.000000
    10  C    1.501171   5.389317   4.620702   2.612388   0.000000
    11  H    2.228327   5.988063   5.535323   3.663193   1.099244
    12  O    2.382676   6.100409   4.859871   2.469594   1.218834
    13  C    2.538568   4.635750   5.376157   4.669592   3.032603
    14  O    2.975428   5.746217   6.186197   5.030314   2.863091
    15  H    3.491468   4.737511   5.936357   5.583189   4.108880
    16  O    3.663129   2.470940   4.418231   5.178777   4.970063
    17  H    3.887090   3.429534   5.237098   5.668791   5.002211
                   11         12         13         14         15
    11  H    0.000000
    12  O    2.017199   0.000000
    13  C    2.737212   4.213253   0.000000
    14  O    2.273006   3.939794   1.220178   0.000000
    15  H    3.748503   5.305401   1.113681   2.000167   0.000000
    16  O    5.147696   6.016786   2.885745   4.081843   2.553531
    17  H    4.986955   6.126935   2.422926   3.562510   1.803644
                   16         17
    16  O    0.000000
    17  H    0.965333   0.000000
 Symmetry turned off by external request.
 Stoichiometry    C8H6O3
 Framework group  C1[X(C8H6O3)]
 Deg. of freedom    45
 Full point group                 C1      NOp   1
 Rotational constants (GHZ):           1.5412600           1.0856196           0.6399867
 Standard basis: 6-31++G(d,p) (6D, 7F)
   245 basis functions,   400 primitive gaussians,   245 cartesian basis functions
    39 alpha electrons       39 beta electrons
       nuclear repulsion energy       563.3960992301 Hartrees.
 NAtoms=   17 NActive=   17 NUniq=   17 SFac= 1.00D+00 NAtFMM=   60 NAOKFM=F Big=F
 Integral buffers will be    131072 words long.
 Raffenetti 2 integral format.
 Two-electron integral symmetry is turned off.
 One-electron integrals computed using PRISM.
 NBasis=   245 RedAO= T EigKep=  2.06D-06  NBF=   245
 NBsUse=   244 1.00D-06 EigRej=  5.47D-07 NBFU=   244
 Initial guess from the checkpoint file:  "C:\Users\Administrator\Desktop\dataset_dft\C8H6O3\C8H6O3.chk"
 B after Tr=    -0.018310    0.000704    0.010334
         Rot=    1.000000    0.000080    0.000855    0.000078 Ang=   0.10 deg.
 ExpMin= 3.60D-02 ExpMax= 5.48D+03 ExpMxC= 8.25D+02 IAcc=3 IRadAn=         5 AccDes= 0.00D+00
 Harris functional with IExCor=  402 and IRadAn=       5 diagonalized for initial guess.
 HarFok:  IExCor=  402 AccDes= 0.00D+00 IRadAn=         5 IDoV= 1 UseB2=F ITyADJ=14
 ICtDFT=  3500011 ScaDFX=  1.000000  1.000000  1.000000  1.000000
 FoFCou: FMM=F IPFlag=           0 FMFlag=      100000 FMFlg1=           0
         NFxFlg=           0 DoJE=T BraDBF=F KetDBF=T FulRan=T
         wScrn=  0.000000 ICntrl=       500 IOpCl=  0 I1Cent=   200000004 NGrid=           0
         NMat0=    1 NMatS0=      1 NMatT0=    0 NMatD0=    1 NMtDS0=    0 NMtDT0=    0
 Symmetry not used in FoFCou.
 Requested convergence on RMS density matrix=1.00D-08 within 128 cycles.
 Requested convergence on MAX density matrix=1.00D-06.
 Requested convergence on             energy=1.00D-06.
 No special actions if energy rises.
 SCF Done:  E(RB3LYP) =  -534.135608474     A.U. after   13 cycles
            NFock= 13  Conv=0.89D-08     -V/T= 2.0090
 Variable Step   Value    
 -------- ---- -----------
    15       4    2.645617
 ---------------------------------------------------------------------------------------------------
                            Z-MATRIX (ANGSTROMS AND DEGREES)
   CD    Cent   Atom    N1       Length/X        N2       Alpha/Y        N3        Beta/Z          J
 ---------------------------------------------------------------------------------------------------
      1      1  C 
      2      2  C        1   1.416405(     1)
      3      3  C        2   1.401843(     2)      1  120.707(    17)
      4      4  C        3   1.387814(     3)      2  119.979(    18)      1    0.201(    32)      0
      5      5  C        4   1.399832(     4)      3  120.495(    19)      2   -0.482(    33)      0
      6      6  C        5   1.393225(     5)      4  120.358(    20)      3    0.190(    34)      0
      7      7  H        3   1.084756(     6)      2  118.270(    21)      1  179.519(    35)      0
      8      8  H        4   1.085840(     7)      3  119.562(    22)      2  179.722(    36)      0
      9      9  H        5   1.084290(     8)      4  121.250(    23)      3 -178.844(    37)      0
     10     10  C        6   1.501171(     9)      5  116.670(    24)      4 -175.432(    38)      0
     11     11  H       10   1.099244(    10)      6  117.103(    25)      5  156.547(    39)      0
     12     12  O       10   1.218834(    11)      6  121.980(    26)      5  -21.197(    40)      0
     13     13  C        1   1.472578(    12)      2  119.519(    27)      3 -178.107(    41)      0
     14     14  O       13   1.220178(    13)      1  126.195(    28)      2  163.535(    42)      0
     15     15  H       13   1.113681(    14)      1  115.908(    29)      2  -16.954(    43)      0
     16     16  O        2   1.400000(    15)      1  124.490(    30)      6  178.799(    44)      0
     17     17  H       16   0.965333(    16)      2  112.214(    31)      1   -0.873(    45)      0
 ---------------------------------------------------------------------------------------------------
                         Z-Matrix orientation:                         
 ---------------------------------------------------------------------
 Center     Atomic      Atomic             Coordinates (Angstroms)
 Number     Number       Type             X           Y           Z
 ---------------------------------------------------------------------
      1          6           0        0.000000    0.000000    0.000000
      2          6           0        0.000000    0.000000    1.416405
      3          6           0        1.205288    0.000000    2.132257
      4          6           0        2.415384    0.004207    1.452790
      5          6           0        2.444256   -0.001670    0.053268
      6          6           0        1.256849   -0.007847   -0.675499
      7          1           0        1.159177    0.008018    3.216003
      8          1           0        3.344911    0.008756    2.014044
      9          1           0        3.382535   -0.017173   -0.489941
     10          6           0        1.382332   -0.120696   -2.167154
     11          1           0        0.515109   -0.517038   -2.714123
     12          8           0        2.410696    0.171714   -2.752405
     13          6           0       -1.280730    0.042319   -0.725552
     14          8           0       -1.433175    0.326596   -1.902319
     15          1           0       -2.185439   -0.220064   -0.131464
     16          8           0       -1.153494    0.031390    2.209164
     17          1           0       -1.959636    0.066942    1.679316
 ---------------------------------------------------------------------
                    Distance matrix (angstroms):
                    1          2          3          4          5
     1  C    0.000000
     2  C    1.416405   0.000000
     3  C    2.449335   1.401843   0.000000
     4  C    2.818634   2.415662   1.387814   0.000000
     5  C    2.444837   2.798667   2.420174   1.399832   0.000000
     6  C    1.426895   2.440449   2.808240   2.423213   1.393225
     7  H    3.418542   2.140632   1.084756   2.164947   3.413857
     8  H    3.904469   3.397894   2.142905   1.085840   2.157760
     9  H    3.417877   3.882782   3.408317   2.170263   1.084290
    10  C    2.573318   3.842825   4.304747   3.766535   2.464168
    11  H    2.810539   4.194512   4.922507   4.609327   3.412574
    12  O    3.662878   4.818706   5.034126   4.208532   2.811226
    13  C    1.472578   2.496005   3.788027   4.290441   3.805787
    14  O    2.404054   3.629682   4.831766   5.115868   4.355061
    15  H    2.200421   2.687093   4.082877   4.871112   4.638523
    16  O    2.492376   1.400000   2.360244   3.648251   4.194376
    17  H    2.581619   1.978327   3.197871   4.381330   4.694998
                    6          7          8          9         10
     6  C    0.000000
     7  H    3.892760   0.000000
     8  H    3.404985   2.494423   0.000000
     9  H    2.133791   4.321803   2.504402   0.000000
    10  C    1.501171   5.389317   4.620702   2.612388   0.000000
    11  H    2.228327   5.988063   5.535323   3.663193   1.099244
    12  O    2.382676   6.100409   4.859871   2.469594   1.218834
    13  C    2.538568   4.635750   5.376157   4.669592   3.032603
    14  O    2.975428   5.746217   6.186197   5.030314   2.863091
    15  H    3.491468   4.737511   5.936357   5.583189   4.108880
    16  O    3.759331   2.522443   4.502692   5.278550   5.060207
    17  H    3.987044   3.477337   5.315416   5.766415   5.098949
                   11         12         13         14         15
    11  H    0.000000
    12  O    2.017199   0.000000
    13  C    2.737212   4.213253   0.000000
    14  O    2.273006   3.939794   1.220178   0.000000
    15  H    3.748503   5.305401   1.113681   2.000167   0.000000
    16  O    5.227214   6.110672   2.937493   4.131545   2.570346
    17  H    5.076189   6.225024   2.498982   3.629420   1.847236
                   16         17
    16  O    0.000000
    17  H    0.965333   0.000000
 Symmetry turned off by external request.
 Stoichiometry    C8H6O3
 Framework group  C1[X(C8H6O3)]
 Deg. of freedom    45
 Full point group                 C1      NOp   1
 Rotational constants (GHZ):           1.5333390           1.0681093           0.6325171
 Standard basis: 6-31++G(d,p) (6D, 7F)
   245 basis functions,   400 primitive gaussians,   245 cartesian basis functions
    39 alpha electrons       39 beta electrons
       nuclear repulsion energy       559.9077860203 Hartrees.
 NAtoms=   17 NActive=   17 NUniq=   17 SFac= 1.00D+00 NAtFMM=   60 NAOKFM=F Big=F
 Integral buffers will be    131072 words long.
 Raffenetti 2 integral format.
 Two-electron integral symmetry is turned off.
 One-electron integrals computed using PRISM.
 NBasis=   245 RedAO= T EigKep=  2.04D-06  NBF=   245
 NBsUse=   244 1.00D-06 EigRej=  5.34D-07 NBFU=   244
 Initial guess from the checkpoint file:  "C:\Users\Administrator\Desktop\dataset_dft\C8H6O3\C8H6O3.chk"
 B after Tr=    -0.018285    0.000695    0.010387
         Rot=    1.000000    0.000078    0.000845    0.000076 Ang=   0.10 deg.
 ExpMin= 3.60D-02 ExpMax= 5.48D+03 ExpMxC= 8.25D+02 IAcc=3 IRadAn=         5 AccDes= 0.00D+00
 Harris functional with IExCor=  402 and IRadAn=       5 diagonalized for initial guess.
 HarFok:  IExCor=  402 AccDes= 0.00D+00 IRadAn=         5 IDoV= 1 UseB2=F ITyADJ=14
 ICtDFT=  3500011 ScaDFX=  1.000000  1.000000  1.000000  1.000000
 FoFCou: FMM=F IPFlag=           0 FMFlag=      100000 FMFlg1=           0
         NFxFlg=           0 DoJE=T BraDBF=F KetDBF=T FulRan=T
         wScrn=  0.000000 ICntrl=       500 IOpCl=  0 I1Cent=   200000004 NGrid=           0
         NMat0=    1 NMatS0=      1 NMatT0=    0 NMatD0=    1 NMtDS0=    0 NMtDT0=    0
 Symmetry not used in FoFCou.
 Requested convergence on RMS density matrix=1.00D-08 within 128 cycles.
 Requested convergence on MAX density matrix=1.00D-06.
 Requested convergence on             energy=1.00D-06.
 No special actions if energy rises.
 SCF Done:  E(RB3LYP) =  -534.138146393     A.U. after   13 cycles
            NFock= 13  Conv=0.66D-08     -V/T= 2.0095
 Variable Step   Value    
 -------- ---- -----------
    15       5    2.834589
 ---------------------------------------------------------------------------------------------------
                            Z-MATRIX (ANGSTROMS AND DEGREES)
   CD    Cent   Atom    N1       Length/X        N2       Alpha/Y        N3        Beta/Z          J
 ---------------------------------------------------------------------------------------------------
      1      1  C 
      2      2  C        1   1.416405(     1)
      3      3  C        2   1.401843(     2)      1  120.707(    17)
      4      4  C        3   1.387814(     3)      2  119.979(    18)      1    0.201(    32)      0
      5      5  C        4   1.399832(     4)      3  120.495(    19)      2   -0.482(    33)      0
      6      6  C        5   1.393225(     5)      4  120.358(    20)      3    0.190(    34)      0
      7      7  H        3   1.084756(     6)      2  118.270(    21)      1  179.519(    35)      0
      8      8  H        4   1.085840(     7)      3  119.562(    22)      2  179.722(    36)      0
      9      9  H        5   1.084290(     8)      4  121.250(    23)      3 -178.844(    37)      0
     10     10  C        6   1.501171(     9)      5  116.670(    24)      4 -175.432(    38)      0
     11     11  H       10   1.099244(    10)      6  117.103(    25)      5  156.547(    39)      0
     12     12  O       10   1.218834(    11)      6  121.980(    26)      5  -21.197(    40)      0
     13     13  C        1   1.472578(    12)      2  119.519(    27)      3 -178.107(    41)      0
     14     14  O       13   1.220178(    13)      1  126.195(    28)      2  163.535(    42)      0
     15     15  H       13   1.113681(    14)      1  115.908(    29)      2  -16.954(    43)      0
     16     16  O        2   1.500000(    15)      1  124.490(    30)      6  178.799(    44)      0
     17     17  H       16   0.965333(    16)      2  112.214(    31)      1   -0.873(    45)      0
 ---------------------------------------------------------------------------------------------------
                         Z-Matrix orientation:                         
 ---------------------------------------------------------------------
 Center     Atomic      Atomic             Coordinates (Angstroms)
 Number     Number       Type             X           Y           Z
 ---------------------------------------------------------------------
      1          6           0        0.000000    0.000000    0.000000
      2          6           0        0.000000    0.000000    1.416405
      3          6           0        1.205288    0.000000    2.132257
      4          6           0        2.415384    0.004207    1.452790
      5          6           0        2.444256   -0.001670    0.053268
      6          6           0        1.256849   -0.007847   -0.675499
      7          1           0        1.159177    0.008018    3.216003
      8          1           0        3.344911    0.008756    2.014044
      9          1           0        3.382535   -0.017173   -0.489941
     10          6           0        1.382332   -0.120696   -2.167154
     11          1           0        0.515109   -0.517038   -2.714123
     12          8           0        2.410696    0.171714   -2.752405
     13          6           0       -1.280730    0.042319   -0.725552
     14          8           0       -1.433175    0.326596   -1.902319
     15          1           0       -2.185439   -0.220064   -0.131464
     16          8           0       -1.235887    0.033632    2.265789
     17          1           0       -2.042028    0.069184    1.735941
 ---------------------------------------------------------------------
                    Distance matrix (angstroms):
                    1          2          3          4          5
     1  C    0.000000
     2  C    1.416405   0.000000
     3  C    2.449335   1.401843   0.000000
     4  C    2.818634   2.415662   1.387814   0.000000
     5  C    2.444837   2.798667   2.420174   1.399832   0.000000
     6  C    1.426895   2.440449   2.808240   2.423213   1.393225
     7  H    3.418542   2.140632   1.084756   2.164947   3.413857
     8  H    3.904469   3.397894   2.142905   1.085840   2.157760
     9  H    3.417877   3.882782   3.408317   2.170263   1.084290
    10  C    2.573318   3.842825   4.304747   3.766535   2.464168
    11  H    2.810539   4.194512   4.922507   4.609327   3.412574
    12  O    3.662878   4.818706   5.034126   4.208532   2.811226
    13  C    1.472578   2.496005   3.788027   4.290441   3.805787
    14  O    2.404054   3.629682   4.831766   5.115868   4.355061
    15  H    2.200421   2.687093   4.082877   4.871112   4.638523
    16  O    2.581153   1.500000   2.445055   3.740804   4.294176
    17  H    2.681074   2.068035   3.272143   4.466870   4.791989
                    6          7          8          9         10
     6  C    0.000000
     7  H    3.892760   0.000000
     8  H    3.404985   2.494423   0.000000
     9  H    2.133791   4.321803   2.504402   0.000000
    10  C    1.501171   5.389317   4.620702   2.612388   0.000000
    11  H    2.228327   5.988063   5.535323   3.663193   1.099244
    12  O    2.382676   6.100409   4.859871   2.469594   1.218834
    13  C    2.538568   4.635750   5.376157   4.669592   3.032603
    14  O    2.975428   5.746217   6.186197   5.030314   2.863091
    15  H    3.491468   4.737511   5.936357   5.583189   4.108880
    16  O    3.855726   2.576798   4.587778   5.378332   5.150715
    17  H    4.087000   3.527327   5.394452   5.864120   5.195811
                   11         12         13         14         15
    11  H    0.000000
    12  O    2.017199   0.000000
    13  C    2.737212   4.213253   0.000000
    14  O    2.273006   3.939794   1.220178   0.000000
    15  H    3.748503   5.305401   1.113681   2.000167   0.000000
    16  O    5.307424   6.204749   2.991691   4.183047   2.590914
    17  H    5.165818   6.323173   2.576674   3.697824   1.895108
                   16         17
    16  O    0.000000
    17  H    0.965333   0.000000
 Symmetry turned off by external request.
 Stoichiometry    C8H6O3
 Framework group  C1[X(C8H6O3)]
 Deg. of freedom    45
 Full point group                 C1      NOp   1
 Rotational constants (GHZ):           1.5260203           1.0502488           0.6249868
 Standard basis: 6-31++G(d,p) (6D, 7F)
   245 basis functions,   400 primitive gaussians,   245 cartesian basis functions
    39 alpha electrons       39 beta electrons
       nuclear repulsion energy       556.6885978419 Hartrees.
 NAtoms=   17 NActive=   17 NUniq=   17 SFac= 1.00D+00 NAtFMM=   60 NAOKFM=F Big=F
 Integral buffers will be    131072 words long.
 Raffenetti 2 integral format.
 Two-electron integral symmetry is turned off.
 One-electron integrals computed using PRISM.
 NBasis=   245 RedAO= T EigKep=  2.02D-06  NBF=   245
 NBsUse=   244 1.00D-06 EigRej=  5.30D-07 NBFU=   244
 Initial guess from the checkpoint file:  "C:\Users\Administrator\Desktop\dataset_dft\C8H6O3\C8H6O3.chk"
 B after Tr=    -0.018261    0.000686    0.010440
         Rot=    1.000000    0.000077    0.000835    0.000074 Ang=   0.10 deg.
 ExpMin= 3.60D-02 ExpMax= 5.48D+03 ExpMxC= 8.25D+02 IAcc=3 IRadAn=         5 AccDes= 0.00D+00
 Harris functional with IExCor=  402 and IRadAn=       5 diagonalized for initial guess.
 HarFok:  IExCor=  402 AccDes= 0.00D+00 IRadAn=         5 IDoV= 1 UseB2=F ITyADJ=14
 ICtDFT=  3500011 ScaDFX=  1.000000  1.000000  1.000000  1.000000
 FoFCou: FMM=F IPFlag=           0 FMFlag=      100000 FMFlg1=           0
         NFxFlg=           0 DoJE=T BraDBF=F KetDBF=T FulRan=T
         wScrn=  0.000000 ICntrl=       500 IOpCl=  0 I1Cent=   200000004 NGrid=           0
         NMat0=    1 NMatS0=      1 NMatT0=    0 NMatD0=    1 NMtDS0=    0 NMtDT0=    0
 Symmetry not used in FoFCou.
 Requested convergence on RMS density matrix=1.00D-08 within 128 cycles.
 Requested convergence on MAX density matrix=1.00D-06.
 Requested convergence on             energy=1.00D-06.
 No special actions if energy rises.
 SCF Done:  E(RB3LYP) =  -534.128771258     A.U. after   13 cycles
            NFock= 13  Conv=0.66D-08     -V/T= 2.0098
 Variable Step   Value    
 -------- ---- -----------
    15       6    3.023562
 ---------------------------------------------------------------------------------------------------
                            Z-MATRIX (ANGSTROMS AND DEGREES)
   CD    Cent   Atom    N1       Length/X        N2       Alpha/Y        N3        Beta/Z          J
 ---------------------------------------------------------------------------------------------------
      1      1  C 
      2      2  C        1   1.416405(     1)
      3      3  C        2   1.401843(     2)      1  120.707(    17)
      4      4  C        3   1.387814(     3)      2  119.979(    18)      1    0.201(    32)      0
      5      5  C        4   1.399832(     4)      3  120.495(    19)      2   -0.482(    33)      0
      6      6  C        5   1.393225(     5)      4  120.358(    20)      3    0.190(    34)      0
      7      7  H        3   1.084756(     6)      2  118.270(    21)      1  179.519(    35)      0
      8      8  H        4   1.085840(     7)      3  119.562(    22)      2  179.722(    36)      0
      9      9  H        5   1.084290(     8)      4  121.250(    23)      3 -178.844(    37)      0
     10     10  C        6   1.501171(     9)      5  116.670(    24)      4 -175.432(    38)      0
     11     11  H       10   1.099244(    10)      6  117.103(    25)      5  156.547(    39)      0
     12     12  O       10   1.218834(    11)      6  121.980(    26)      5  -21.197(    40)      0
     13     13  C        1   1.472578(    12)      2  119.519(    27)      3 -178.107(    41)      0
     14     14  O       13   1.220178(    13)      1  126.195(    28)      2  163.535(    42)      0
     15     15  H       13   1.113681(    14)      1  115.908(    29)      2  -16.954(    43)      0
     16     16  O        2   1.600000(    15)      1  124.490(    30)      6  178.799(    44)      0
     17     17  H       16   0.965333(    16)      2  112.214(    31)      1   -0.873(    45)      0
 ---------------------------------------------------------------------------------------------------
                         Z-Matrix orientation:                         
 ---------------------------------------------------------------------
 Center     Atomic      Atomic             Coordinates (Angstroms)
 Number     Number       Type             X           Y           Z
 ---------------------------------------------------------------------
      1          6           0        0.000000    0.000000    0.000000
      2          6           0        0.000000    0.000000    1.416405
      3          6           0        1.205288    0.000000    2.132257
      4          6           0        2.415384    0.004207    1.452790
      5          6           0        2.444256   -0.001670    0.053268
      6          6           0        1.256849   -0.007847   -0.675499
      7          1           0        1.159177    0.008018    3.216003
      8          1           0        3.344911    0.008756    2.014044
      9          1           0        3.382535   -0.017173   -0.489941
     10          6           0        1.382332   -0.120696   -2.167154
     11          1           0        0.515109   -0.517038   -2.714123
     12          8           0        2.410696    0.171714   -2.752405
     13          6           0       -1.280730    0.042319   -0.725552
     14          8           0       -1.433175    0.326596   -1.902319
     15          1           0       -2.185439   -0.220064   -0.131464
     16          8           0       -1.318279    0.035874    2.322415
     17          1           0       -2.124421    0.071426    1.792567
 ---------------------------------------------------------------------
                    Distance matrix (angstroms):
                    1          2          3          4          5
     1  C    0.000000
     2  C    1.416405   0.000000
     3  C    2.449335   1.401843   0.000000
     4  C    2.818634   2.415662   1.387814   0.000000
     5  C    2.444837   2.798667   2.420174   1.399832   0.000000
     6  C    1.426895   2.440449   2.808240   2.423213   1.393225
     7  H    3.418542   2.140632   1.084756   2.164947   3.413857
     8  H    3.904469   3.397894   2.142905   1.085840   2.157760
     9  H    3.417877   3.882782   3.408317   2.170263   1.084290
    10  C    2.573318   3.842825   4.304747   3.766535   2.464168
    11  H    2.810539   4.194512   4.922507   4.609327   3.412574
    12  O    3.662878   4.818706   5.034126   4.208532   2.811226
    13  C    1.472578   2.496005   3.788027   4.290441   3.805787
    14  O    2.404054   3.629682   4.831766   5.115868   4.355061
    15  H    2.200421   2.687093   4.082877   4.871112   4.638523
    16  O    2.670722   1.600000   2.530976   3.833731   4.393986
    17  H    2.780569   2.158648   3.347753   4.552999   4.889102
                    6          7          8          9         10
     6  C    0.000000
     7  H    3.892760   0.000000
     8  H    3.404985   2.494423   0.000000
     9  H    2.133791   4.321803   2.504402   0.000000
    10  C    1.501171   5.389317   4.620702   2.612388   0.000000
    11  H    2.228327   5.988063   5.535323   3.663193   1.099244
    12  O    2.382676   6.100409   4.859871   2.469594   1.218834
    13  C    2.538568   4.635750   5.376157   4.669592   3.032603
    14  O    2.975428   5.746217   6.186197   5.030314   2.863091
    15  H    3.491468   4.737511   5.936357   5.583189   4.108880
    16  O    3.952301   2.633830   4.673454   5.478122   5.241568
    17  H    4.186958   3.579414   5.474174   5.961901   5.292789
                   11         12         13         14         15
    11  H    0.000000
    12  O    2.017199   0.000000
    13  C    2.737212   4.213253   0.000000
    14  O    2.273006   3.939794   1.220178   0.000000
    15  H    3.748503   5.305401   1.113681   2.000167   0.000000
    16  O    5.388296   6.299008   3.048206   4.236284   2.615147
    17  H    5.255822   6.421379   2.655859   3.767641   1.946942
                   16         17
    16  O    0.000000
    17  H    0.965333   0.000000
 Symmetry turned off by external request.
 Stoichiometry    C8H6O3
 Framework group  C1[X(C8H6O3)]
 Deg. of freedom    45
 Full point group                 C1      NOp   1
 Rotational constants (GHZ):           1.5192658           1.0321111           0.6174062
 Standard basis: 6-31++G(d,p) (6D, 7F)
   245 basis functions,   400 primitive gaussians,   245 cartesian basis functions
    39 alpha electrons       39 beta electrons
       nuclear repulsion energy       553.6998015079 Hartrees.
 NAtoms=   17 NActive=   17 NUniq=   17 SFac= 1.00D+00 NAtFMM=   60 NAOKFM=F Big=F
 Integral buffers will be    131072 words long.
 Raffenetti 2 integral format.
 Two-electron integral symmetry is turned off.
 One-electron integrals computed using PRISM.
 NBasis=   245 RedAO= T EigKep=  2.00D-06  NBF=   245
 NBsUse=   244 1.00D-06 EigRej=  5.32D-07 NBFU=   244
 Initial guess from the checkpoint file:  "C:\Users\Administrator\Desktop\dataset_dft\C8H6O3\C8H6O3.chk"
 B after Tr=    -0.018237    0.000678    0.010493
         Rot=    1.000000    0.000075    0.000825    0.000073 Ang=   0.10 deg.
 ExpMin= 3.60D-02 ExpMax= 5.48D+03 ExpMxC= 8.25D+02 IAcc=3 IRadAn=         5 AccDes= 0.00D+00
 Harris functional with IExCor=  402 and IRadAn=       5 diagonalized for initial guess.
 HarFok:  IExCor=  402 AccDes= 0.00D+00 IRadAn=         5 IDoV= 1 UseB2=F ITyADJ=14
 ICtDFT=  3500011 ScaDFX=  1.000000  1.000000  1.000000  1.000000
 FoFCou: FMM=F IPFlag=           0 FMFlag=      100000 FMFlg1=           0
         NFxFlg=           0 DoJE=T BraDBF=F KetDBF=T FulRan=T
         wScrn=  0.000000 ICntrl=       500 IOpCl=  0 I1Cent=   200000004 NGrid=           0
         NMat0=    1 NMatS0=      1 NMatT0=    0 NMatD0=    1 NMtDS0=    0 NMtDT0=    0
 Symmetry not used in FoFCou.
 Requested convergence on RMS density matrix=1.00D-08 within 128 cycles.
 Requested convergence on MAX density matrix=1.00D-06.
 Requested convergence on             energy=1.00D-06.
 No special actions if energy rises.
 SCF Done:  E(RB3LYP) =  -534.113391497     A.U. after   13 cycles
            NFock= 13  Conv=0.62D-08     -V/T= 2.0100
 Variable Step   Value    
 -------- ---- -----------
    15       7    3.212534
 ---------------------------------------------------------------------------------------------------
                            Z-MATRIX (ANGSTROMS AND DEGREES)
   CD    Cent   Atom    N1       Length/X        N2       Alpha/Y        N3        Beta/Z          J
 ---------------------------------------------------------------------------------------------------
      1      1  C 
      2      2  C        1   1.416405(     1)
      3      3  C        2   1.401843(     2)      1  120.707(    17)
      4      4  C        3   1.387814(     3)      2  119.979(    18)      1    0.201(    32)      0
      5      5  C        4   1.399832(     4)      3  120.495(    19)      2   -0.482(    33)      0
      6      6  C        5   1.393225(     5)      4  120.358(    20)      3    0.190(    34)      0
      7      7  H        3   1.084756(     6)      2  118.270(    21)      1  179.519(    35)      0
      8      8  H        4   1.085840(     7)      3  119.562(    22)      2  179.722(    36)      0
      9      9  H        5   1.084290(     8)      4  121.250(    23)      3 -178.844(    37)      0
     10     10  C        6   1.501171(     9)      5  116.670(    24)      4 -175.432(    38)      0
     11     11  H       10   1.099244(    10)      6  117.103(    25)      5  156.547(    39)      0
     12     12  O       10   1.218834(    11)      6  121.980(    26)      5  -21.197(    40)      0
     13     13  C        1   1.472578(    12)      2  119.519(    27)      3 -178.107(    41)      0
     14     14  O       13   1.220178(    13)      1  126.195(    28)      2  163.535(    42)      0
     15     15  H       13   1.113681(    14)      1  115.908(    29)      2  -16.954(    43)      0
     16     16  O        2   1.700000(    15)      1  124.490(    30)      6  178.799(    44)      0
     17     17  H       16   0.965333(    16)      2  112.214(    31)      1   -0.873(    45)      0
 ---------------------------------------------------------------------------------------------------
                         Z-Matrix orientation:                         
 ---------------------------------------------------------------------
 Center     Atomic      Atomic             Coordinates (Angstroms)
 Number     Number       Type             X           Y           Z
 ---------------------------------------------------------------------
      1          6           0        0.000000    0.000000    0.000000
      2          6           0        0.000000    0.000000    1.416405
      3          6           0        1.205288    0.000000    2.132257
      4          6           0        2.415384    0.004207    1.452790
      5          6           0        2.444256   -0.001670    0.053268
      6          6           0        1.256849   -0.007847   -0.675499
      7          1           0        1.159177    0.008018    3.216003
      8          1           0        3.344911    0.008756    2.014044
      9          1           0        3.382535   -0.017173   -0.489941
     10          6           0        1.382332   -0.120696   -2.167154
     11          1           0        0.515109   -0.517038   -2.714123
     12          8           0        2.410696    0.171714   -2.752405
     13          6           0       -1.280730    0.042319   -0.725552
     14          8           0       -1.433175    0.326596   -1.902319
     15          1           0       -2.185439   -0.220064   -0.131464
     16          8           0       -1.400671    0.038117    2.379041
     17          1           0       -2.206813    0.073668    1.849193
 ---------------------------------------------------------------------
                    Distance matrix (angstroms):
                    1          2          3          4          5
     1  C    0.000000
     2  C    1.416405   0.000000
     3  C    2.449335   1.401843   0.000000
     4  C    2.818634   2.415662   1.387814   0.000000
     5  C    2.444837   2.798667   2.420174   1.399832   0.000000
     6  C    1.426895   2.440449   2.808240   2.423213   1.393225
     7  H    3.418542   2.140632   1.084756   2.164947   3.413857
     8  H    3.904469   3.397894   2.142905   1.085840   2.157760
[...]
 Symmetry not used in FoFCou.
 Requested convergence on RMS density matrix=1.00D-08 within 128 cycles.
 Requested convergence on MAX density matrix=1.00D-06.
 Requested convergence on             energy=1.00D-06.
 No special actions if energy rises.
 SCF Done:  E(RB3LYP) =  -533.946683220     A.U. after   15 cycles
            NFock= 15  Conv=0.86D-08     -V/T= 2.0100
 Variable Step   Value    
 -------- ---- -----------
    15      19    5.480206
 ---------------------------------------------------------------------------------------------------
                            Z-MATRIX (ANGSTROMS AND DEGREES)
   CD    Cent   Atom    N1       Length/X        N2       Alpha/Y        N3        Beta/Z          J
 ---------------------------------------------------------------------------------------------------
      1      1  C 
      2      2  C        1   1.416405(     1)
      3      3  C        2   1.401843(     2)      1  120.707(    17)
      4      4  C        3   1.387814(     3)      2  119.979(    18)      1    0.201(    32)      0
      5      5  C        4   1.399832(     4)      3  120.495(    19)      2   -0.482(    33)      0
      6      6  C        5   1.393225(     5)      4  120.358(    20)      3    0.190(    34)      0
      7      7  H        3   1.084756(     6)      2  118.270(    21)      1  179.519(    35)      0
      8      8  H        4   1.085840(     7)      3  119.562(    22)      2  179.722(    36)      0
      9      9  H        5   1.084290(     8)      4  121.250(    23)      3 -178.844(    37)      0
     10     10  C        6   1.501171(     9)      5  116.670(    24)      4 -175.432(    38)      0
     11     11  H       10   1.099244(    10)      6  117.103(    25)      5  156.547(    39)      0
     12     12  O       10   1.218834(    11)      6  121.980(    26)      5  -21.197(    40)      0
     13     13  C        1   1.472578(    12)      2  119.519(    27)      3 -178.107(    41)      0
     14     14  O       13   1.220178(    13)      1  126.195(    28)      2  163.535(    42)      0
     15     15  H       13   1.113681(    14)      1  115.908(    29)      2  -16.954(    43)      0
     16     16  O        2   2.900000(    15)      1  124.490(    30)      6  178.799(    44)      0
     17     17  H       16   0.965333(    16)      2  112.214(    31)      1   -0.873(    45)      0
 ---------------------------------------------------------------------------------------------------
                         Z-Matrix orientation:                         
 ---------------------------------------------------------------------
 Center     Atomic      Atomic             Coordinates (Angstroms)
 Number     Number       Type             X           Y           Z
 ---------------------------------------------------------------------
      1          6           0        0.000000    0.000000    0.000000
      2          6           0        0.000000    0.000000    1.416405
      3          6           0        1.205288    0.000000    2.132257
      4          6           0        2.415384    0.004207    1.452790
      5          6           0        2.444256   -0.001670    0.053268
      6          6           0        1.256849   -0.007847   -0.675499
      7          1           0        1.159177    0.008018    3.216003
      8          1           0        3.344911    0.008756    2.014044
      9          1           0        3.382535   -0.017173   -0.489941
     10          6           0        1.382332   -0.120696   -2.167154
     11          1           0        0.515109   -0.517038   -2.714123
     12          8           0        2.410696    0.171714   -2.752405
     13          6           0       -1.280730    0.042319   -0.725552
     14          8           0       -1.433175    0.326596   -1.902319
     15          1           0       -2.185439   -0.220064   -0.131464
     16          8           0       -2.389381    0.065022    3.058548
     17          1           0       -3.195523    0.100574    2.528700
 ---------------------------------------------------------------------
                    Distance matrix (angstroms):
                    1          2          3          4          5
     1  C    0.000000
     2  C    1.416405   0.000000
     3  C    2.449335   1.401843   0.000000
     4  C    2.818634   2.415662   1.387814   0.000000
     5  C    2.444837   2.798667   2.420174   1.399832   0.000000
     6  C    1.426895   2.440449   2.808240   2.423213   1.393225
     7  H    3.418542   2.140632   1.084756   2.164947   3.413857
     8  H    3.904469   3.397894   2.142905   1.085840   2.157760
     9  H    3.417877   3.882782   3.408317   2.170263   1.084290
    10  C    2.573318   3.842825   4.304747   3.766535   2.464168
    11  H    2.810539   4.194512   4.922507   4.609327   3.412574
    12  O    3.662878   4.818706   5.034126   4.208532   2.811226
    13  C    1.472578   2.496005   3.788027   4.290441   3.805787
    14  O    2.404054   3.629682   4.831766   5.115868   4.355061
    15  H    2.200421   2.687093   4.082877   4.871112   4.638523
    16  O    3.881763   2.900000   3.712666   5.066352   5.692117
    17  H    4.076249   3.385067   4.419775   5.713943   6.159977
                    6          7          8          9         10
     6  C    0.000000
     7  H    3.892760   0.000000
     8  H    3.404985   2.494423   0.000000
     9  H    2.133791   4.321803   2.504402   0.000000
    10  C    1.501171   5.389317   4.620702   2.612388   0.000000
    11  H    2.228327   5.988063   5.535323   3.663193   1.099244
    12  O    2.382676   6.100409   4.859871   2.469594   1.218834
    13  C    2.538568   4.635750   5.376157   4.669592   3.032603
    14  O    2.975428   5.746217   6.186197   5.030314   2.863091
    15  H    3.491468   4.737511   5.936357   5.583189   4.108880
    16  O    5.219521   3.552506   5.828916   6.775954   6.447345
    17  H    5.486552   4.409576   6.561294   7.238571   6.561764
                   11         12         13         14         15
    11  H    0.000000
    12  O    2.017199   0.000000
    13  C    2.737212   4.213253   0.000000
    14  O    2.273006   3.939794   1.220178   0.000000
    15  H    3.748503   5.305401   1.113681   2.000167   0.000000
    16  O    6.488342   7.537857   3.943227   5.058948   3.209212
    17  H    6.452706   7.702260   3.776239   4.773980   2.863486
                   16         17
    16  O    0.000000
    17  H    0.965333   0.000000
 Symmetry turned off by external request.
 Stoichiometry    C8H6O3
 Framework group  C1[X(C8H6O3)]
 Deg. of freedom    45
 Full point group                 C1      NOp   1
 Rotational constants (GHZ):           1.4664152           0.7969013           0.5183074
 Standard basis: 6-31++G(d,p) (6D, 7F)
   245 basis functions,   400 primitive gaussians,   245 cartesian basis functions
    39 alpha electrons       39 beta electrons
       nuclear repulsion energy       527.2101789764 Hartrees.
 NAtoms=   17 NActive=   17 NUniq=   17 SFac= 1.00D+00 NAtFMM=   60 NAOKFM=F Big=F
 Integral buffers will be    131072 words long.
 Raffenetti 2 integral format.
 Two-electron integral symmetry is turned off.
 One-electron integrals computed using PRISM.
 NBasis=   245 RedAO= T EigKep=  1.73D-06  NBF=   245
 NBsUse=   244 1.00D-06 EigRej=  7.19D-07 NBFU=   244
 Initial guess from the checkpoint file:  "C:\Users\Administrator\Desktop\dataset_dft\C8H6O3\C8H6O3.chk"
 B after Tr=    -0.017971    0.000587    0.011111
         Rot=    1.000000    0.000059    0.000695    0.000055 Ang=   0.08 deg.
 ExpMin= 3.60D-02 ExpMax= 5.48D+03 ExpMxC= 8.25D+02 IAcc=3 IRadAn=         5 AccDes= 0.00D+00
 Harris functional with IExCor=  402 and IRadAn=       5 diagonalized for initial guess.
 HarFok:  IExCor=  402 AccDes= 0.00D+00 IRadAn=         5 IDoV= 1 UseB2=F ITyADJ=14
 ICtDFT=  3500011 ScaDFX=  1.000000  1.000000  1.000000  1.000000
 FoFCou: FMM=F IPFlag=           0 FMFlag=      100000 FMFlg1=           0
         NFxFlg=           0 DoJE=T BraDBF=F KetDBF=T FulRan=T
         wScrn=  0.000000 ICntrl=       500 IOpCl=  0 I1Cent=   200000004 NGrid=           0
         NMat0=    1 NMatS0=      1 NMatT0=    0 NMatD0=    1 NMtDS0=    0 NMtDT0=    0
 Symmetry not used in FoFCou.
 Requested convergence on RMS density matrix=1.00D-08 within 128 cycles.
 Requested convergence on MAX density matrix=1.00D-06.
 Requested convergence on             energy=1.00D-06.
 No special actions if energy rises.
 SCF Done:  E(RB3LYP) =  -533.939614258     A.U. after   16 cycles
            NFock= 16  Conv=0.56D-08     -V/T= 2.0100
 Variable Step   Value    
 -------- ---- -----------
    15      20    5.669178
 ---------------------------------------------------------------------------------------------------
                            Z-MATRIX (ANGSTROMS AND DEGREES)
   CD    Cent   Atom    N1       Length/X        N2       Alpha/Y        N3        Beta/Z          J
 ---------------------------------------------------------------------------------------------------
      1      1  C 
      2      2  C        1   1.416405(     1)
      3      3  C        2   1.401843(     2)      1  120.707(    17)
      4      4  C        3   1.387814(     3)      2  119.979(    18)      1    0.201(    32)      0
      5      5  C        4   1.399832(     4)      3  120.495(    19)      2   -0.482(    33)      0
      6      6  C        5   1.393225(     5)      4  120.358(    20)      3    0.190(    34)      0
      7      7  H        3   1.084756(     6)      2  118.270(    21)      1  179.519(    35)      0
      8      8  H        4   1.085840(     7)      3  119.562(    22)      2  179.722(    36)      0
      9      9  H        5   1.084290(     8)      4  121.250(    23)      3 -178.844(    37)      0
     10     10  C        6   1.501171(     9)      5  116.670(    24)      4 -175.432(    38)      0
     11     11  H       10   1.099244(    10)      6  117.103(    25)      5  156.547(    39)      0
     12     12  O       10   1.218834(    11)      6  121.980(    26)      5  -21.197(    40)      0
     13     13  C        1   1.472578(    12)      2  119.519(    27)      3 -178.107(    41)      0
     14     14  O       13   1.220178(    13)      1  126.195(    28)      2  163.535(    42)      0
     15     15  H       13   1.113681(    14)      1  115.908(    29)      2  -16.954(    43)      0
     16     16  O        2   3.000000(    15)      1  124.490(    30)      6  178.799(    44)      0
     17     17  H       16   0.965333(    16)      2  112.214(    31)      1   -0.873(    45)      0
 ---------------------------------------------------------------------------------------------------
                         Z-Matrix orientation:                         
 ---------------------------------------------------------------------
 Center     Atomic      Atomic             Coordinates (Angstroms)
 Number     Number       Type             X           Y           Z
 ---------------------------------------------------------------------
      1          6           0        0.000000    0.000000    0.000000
      2          6           0        0.000000    0.000000    1.416405
      3          6           0        1.205288    0.000000    2.132257
      4          6           0        2.415384    0.004207    1.452790
      5          6           0        2.444256   -0.001670    0.053268
      6          6           0        1.256849   -0.007847   -0.675499
      7          1           0        1.159177    0.008018    3.216003
      8          1           0        3.344911    0.008756    2.014044
      9          1           0        3.382535   -0.017173   -0.489941
     10          6           0        1.382332   -0.120696   -2.167154
     11          1           0        0.515109   -0.517038   -2.714123
     12          8           0        2.410696    0.171714   -2.752405
     13          6           0       -1.280730    0.042319   -0.725552
     14          8           0       -1.433175    0.326596   -1.902319
     15          1           0       -2.185439   -0.220064   -0.131464
     16          8           0       -2.471773    0.067265    3.115174
     17          1           0       -3.277915    0.102816    2.585325
 ---------------------------------------------------------------------
                    Distance matrix (angstroms):
                    1          2          3          4          5
     1  C    0.000000
     2  C    1.416405   0.000000
     3  C    2.449335   1.401843   0.000000
     4  C    2.818634   2.415662   1.387814   0.000000
     5  C    2.444837   2.798667   2.420174   1.399832   0.000000
     6  C    1.426895   2.440449   2.808240   2.423213   1.393225
     7  H    3.418542   2.140632   1.084756   2.164947   3.413857
     8  H    3.904469   3.397894   2.142905   1.085840   2.157760
     9  H    3.417877   3.882782   3.408317   2.170263   1.084290
    10  C    2.573318   3.842825   4.304747   3.766535   2.464168
    11  H    2.810539   4.194512   4.922507   4.609327   3.412574
    12  O    3.662878   4.818706   5.034126   4.208532   2.811226
    13  C    1.472578   2.496005   3.788027   4.290441   3.805787
    14  O    2.404054   3.629682   4.831766   5.115868   4.355061
    15  H    2.200421   2.687093   4.082877   4.871112   4.638523
    16  O    3.977247   3.000000   3.806761   5.162539   5.792008
    17  H    4.176027   3.481619   4.507211   5.805688   6.258233
                    6          7          8          9         10
     6  C    0.000000
     7  H    3.892760   0.000000
     8  H    3.404985   2.494423   0.000000
     9  H    2.133791   4.321803   2.504402   0.000000
    10  C    1.501171   5.389317   4.620702   2.612388   0.000000
    11  H    2.228327   5.988063   5.535323   3.663193   1.099244
    12  O    2.382676   6.100409   4.859871   2.469594   1.218834
    13  C    2.538568   4.635750   5.376157   4.669592   3.032603
    14  O    2.975428   5.746217   6.186197   5.030314   2.863091
    15  H    3.491468   4.737511   5.936357   5.583189   4.108880
    16  O    5.317655   3.632833   5.920281   6.875821   6.541593
    17  H    5.586529   4.482691   6.648085   7.337115   6.659873
                   11         12         13         14         15
    11  H    0.000000
    12  O    2.017199   0.000000
    13  C    2.737212   4.213253   0.000000
    14  O    2.273006   3.939794   1.220178   0.000000
    15  H    3.748503   5.305401   1.113681   2.000167   0.000000
    16  O    6.575984   7.633996   4.021241   5.130417   3.271880
    17  H    6.546404   7.801052   3.867082   4.857170   2.945963
                   16         17
    16  O    0.000000
    17  H    0.965333   0.000000
 Symmetry turned off by external request.
 Stoichiometry    C8H6O3
 Framework group  C1[X(C8H6O3)]
 Deg. of freedom    45
 Full point group                 C1      NOp   1
 Rotational constants (GHZ):           1.4640635           0.7801746           0.5108937
 Standard basis: 6-31++G(d,p) (6D, 7F)
   245 basis functions,   400 primitive gaussians,   245 cartesian basis functions
    39 alpha electrons       39 beta electrons
       nuclear repulsion energy       525.7745165454 Hartrees.
 NAtoms=   17 NActive=   17 NUniq=   17 SFac= 1.00D+00 NAtFMM=   60 NAOKFM=F Big=F
 Integral buffers will be    131072 words long.
 Raffenetti 2 integral format.
 Two-electron integral symmetry is turned off.
 One-electron integrals computed using PRISM.
 NBasis=   245 RedAO= T EigKep=  1.75D-06  NBF=   245
 NBsUse=   244 1.00D-06 EigRej=  7.26D-07 NBFU=   244
 Initial guess from the checkpoint file:  "C:\Users\Administrator\Desktop\dataset_dft\C8H6O3\C8H6O3.chk"
 B after Tr=    -0.017954    0.000582    0.011153
         Rot=    1.000000    0.000058    0.000685    0.000054 Ang=   0.08 deg.
 ExpMin= 3.60D-02 ExpMax= 5.48D+03 ExpMxC= 8.25D+02 IAcc=3 IRadAn=         5 AccDes= 0.00D+00
 Harris functional with IExCor=  402 and IRadAn=       5 diagonalized for initial guess.
 HarFok:  IExCor=  402 AccDes= 0.00D+00 IRadAn=         5 IDoV= 1 UseB2=F ITyADJ=14
 ICtDFT=  3500011 ScaDFX=  1.000000  1.000000  1.000000  1.000000
 FoFCou: FMM=F IPFlag=           0 FMFlag=      100000 FMFlg1=           0
         NFxFlg=           0 DoJE=T BraDBF=F KetDBF=T FulRan=T
         wScrn=  0.000000 ICntrl=       500 IOpCl=  0 I1Cent=   200000004 NGrid=           0
         NMat0=    1 NMatS0=      1 NMatT0=    0 NMatD0=    1 NMtDS0=    0 NMtDT0=    0
 Symmetry not used in FoFCou.
 Requested convergence on RMS density matrix=1.00D-08 within 128 cycles.
 Requested convergence on MAX density matrix=1.00D-06.
 Requested convergence on             energy=1.00D-06.
 No special actions if energy rises.
 EnCoef did     1 forward-backward iterations
 SCF Done:  E(RB3LYP) =  -533.933306322     A.U. after   16 cycles
            NFock= 16  Conv=0.68D-08     -V/T= 2.0099
 Scan completed.
 
 Summary of the potential surface scan:
   N      B15         SCF    
 ----  ---------  -----------
    1     1.0000   -533.91135
    2     1.1000   -534.04650
    3     1.2000   -534.11095
    4     1.3000   -534.13561
    5     1.4000   -534.13815
    6     1.5000   -534.12877
    7     1.6000   -534.11339
    8     1.7000   -534.09540
    9     1.8000   -534.07671
   10     1.9000   -534.05839
   11     2.0000   -534.04100
   12     2.1000   -534.02483
   13     2.2000   -534.00998
   14     2.3000   -533.99647
   15     2.4000   -533.98427
   16     2.5000   -533.97329
   17     2.6000   -533.96343
   18     2.7000   -533.95459
   19     2.8000   -533.94668
   20     2.9000   -533.93961
   21     3.0000   -533.93331
 ----  ---------  -----------
  
 1|1|UNPC-BF-202112021916|Scan|RB3LYP|6-31++G(d,p)|C8H6O3|ADMINISTRATOR
 |21-Mar-2023|1||# scan b3lyp/6-31++g(d,p) nosymm||Title Card Required|
 |0,1|C|C,1,B1|C,2,B2,1,A1|C,3,B3,2,A2,1,D1,0|C,4,B4,3,A3,2,D2,0|C,5,B5
 ,4,A4,3,D3,0|H,3,B6,2,A5,1,D4,0|H,4,B7,3,A6,2,D5,0|H,5,B8,4,A7,3,D6,0|
 C,6,B9,5,A8,4,D7,0|H,10,B10,6,A9,5,D8,0|O,10,B11,6,A10,5,D9,0|C,1,B12,
 2,A11,3,D10,0|O,13,B13,1,A12,2,D11,0|H,13,B14,1,A13,2,D12,0|O,2,B15,1,
 A14,6,D13,0|H,16,B16,2,A15,1,D14,0||B1=1.41640543|B2=1.40184266|B3=1.3
 8781378|B4=1.39983165|B5=1.39322488|B6=1.08475603|B7=1.08583956|B8=1.0
 8428977|B9=1.50117117|B10=1.09924387|B11=1.21883362|B12=1.47257773|B13
 =1.22017785|B14=1.11368052|B15=1.,s,20,0.1|B16=0.96533297|A1=120.70717
 149|A2=119.97851826|A3=120.49469346|A4=120.35813845|A5=118.26996991|A6
 =119.56241157|A7=121.25035101|A8=116.67023011|A9=117.10293634|A10=121.
 97992104|A11=119.51879521|A12=126.19501193|A13=115.90757059|A14=124.48
 955885|A15=112.21443445|D1=0.20052181|D2=-0.4816753|D3=0.18978724|D4=1
 79.51915901|D5=179.72238218|D6=-178.84449407|D7=-175.4323131|D8=156.54
 726604|D9=-21.1966001|D10=-178.10748664|D11=163.53528247|D12=-16.95409
 935|D13=178.79889123|D14=-0.8725374||Version=EM64W-G16RevA.03|HF=-533.
 9113543,-534.0464985,-534.1109502,-534.1356085,-534.1381464,-534.12877
 13,-534.1133915,-534.095399,-534.0767116,-534.0583914,-534.0410041,-53
 4.0248283,-534.0099781,-533.9964718,-533.9842673,-533.9732852,-533.963
 4272,-533.9545918,-533.9466832,-533.9396143,-533.9333063|RMSD=4.373e-0
 09,7.280e-009,5.108e-009,8.929e-009,6.643e-009,6.555e-009,6.204e-009,5
 .369e-009,4.234e-009,3.253e-009,3.222e-009,4.045e-009,4.741e-009,4.372
 e-009,3.531e-009,5.711e-009,8.641e-009,5.225e-009,8.564e-009,5.562e-00
 9,6.809e-009|PG=C01 [X(C8H6O3)]||@


 SCIENCE IS A VERY HUMAN FORM OF KNOWLEDGE.
 WE ARE ALWAYS AT THE BRINK OF THE KNOWN,
 WE ALWAYS FEEL FORWARD FOR WHAT IS HOPED.
 EVERY JUDGEMENT IN SCIENCE STANDS ON THE EDGE OF ERROR, AND IS PERSONAL.
 SCIENCE IS A TRIBUTE TO WHAT WE CAN KNOW ALTHOUGH WE ARE FALLIBLE.

                     -- J. BRONOWSKI
 Job cpu time:       0 days  0 hours 13 minutes 41.0 seconds.
 Elapsed time:       0 days  0 hours 13 minutes 17.0 seconds.
 File lengths (MBytes):  RWF=     42 Int=      0 D2E=      0 Chk=      7 Scr=      1
 Normal termination of Gaussian 16 at Tue Mar 21 17:13:35 2023.
