 Entering Link 1 = I:\G16W\l1.exe PID=     16300.
  
 Copyright (c) 1988,1990,1992,1993,1995,1998,2003,2009,2016,
            Gaussian, Inc.  All Rights Reserved.
  
 This is part of the Gaussian(R) 16 program.  It is based on
 the Gaussian(R) 09 system (copyright 2009, Gaussian, Inc.),
 the Gaussian(R) 03 system (copyright 2003, Gaussian, Inc.),
 the Gaussian(R) 98 system (copyright 1998, Gaussian, Inc.),
 the Gaussian(R) 94 system (copyright 1995, Gaussian, Inc.),
 the Gaussian 92(TM) system (copyright 1992, Gaussian, Inc.),
 the Gaussian 90(TM) system (copyright 1990, Gaussian, Inc.),
 the Gaussian 88(TM) system (copyright 1988, Gaussian, Inc.),
 the Gaussian 86(TM) system (copyright 1986, Carnegie Mellon
 University), and the Gaussian 82(TM) system (copyright 1983,
 Carnegie Mellon University). Gaussian is a federally registered
 trademark of Gaussian, Inc.
  
 This software contains proprietary and confidential information,
 including trade secrets, belonging to Gaussian, Inc.
  
 This software is provided under written license and may be
 used, copied, transmitted, or stored only in accord with that
 written license.
  
 The following legend is applicable only to US Government
 contracts under FAR:
  
                    RESTRICTED RIGHTS LEGEND
  
 Use, reproduction and disclosure by the US Government is
 subject to restrictions as set forth in subparagraphs (a)
 and (c) of the Commercial Computer Software - Restricted
 Rights clause in FAR 52.227-19.
  
 Gaussian, Inc.
 340 Quinnipiac St., Bldg. 40, Wallingford CT 06492
  
  
 ---------------------------------------------------------------
 Warning -- This program may not be used in any manner that
 competes with the business of Gaussian, Inc. or will provide
 assistance to any competitor of Gaussian, Inc.  The licensee
 of this program is prohibited from giving any competitor of
 Gaussian, Inc. access to this program.  By using this program,
 the user acknowledges that Gaussian, Inc. is engaged in the
 business of creating and licensing software in the field of
 computational chemistry and represents and warrants to the
 licensee that it is not a competitor of Gaussian, Inc. and that
 it will not use this program in any manner prohibited above.
 ---------------------------------------------------------------
  

 Cite this work as:
 Gaussian 16, Revision A.03,
 M. J. Frisch, G. W. Trucks, H. B. Schlegel, G. E. Scuseria, 
 M. A. Robb, J. R. Cheeseman, G. Scalmani, V. Barone, 
 G. A. Petersson, H. Nakatsuji, X. Li, M. Caricato, A. V. Marenich, 
 J. Bloino, B. G. Janesko, R. Gomperts, B. Mennucci, H. P. Hratchian, 
 J. V. Ortiz, A. F. Izmaylov, J. L. Sonnenberg, D. Williams-Young, 
 F. Ding, F. Lipparini, F. Egidi, J. Goings, B. Peng, A. Petrone, 
 T. Henderson, D. Ranasinghe, V. G. Zakrzewski, J. Gao, N. Rega, 
 G. Zheng, W. Liang, M. Hada, M. Ehara, K. Toyota, R. Fukuda, 
 J. Hasegawa, M. Ishida, T. Nakajima, Y. Honda, O. Kitao, H. Nakai, 
 T. Vreven, K. Throssell, J. A. Montgomery, Jr., J. E. Peralta, 
 F. Ogliaro, M. J. Bearpark, J. J. Heyd, E. N. Brothers, K. N. Kudin, 
 V. N. Staroverov, T. A. Keith, R. Kobayashi, J. Normand, 
 K. Raghavachari, A. P. Rendell, J. C. Burant, S. S. Iyengar, 
 J. Tomasi, M. Cossi, J. M. Millam, M. Klene, C. Adamo, R. Cammi, 
 J. W. Ochterski, R. L. Martin, K. Morokuma, O. Farkas, 
 J. B. Foresman, and D. J. Fox, Gaussian, Inc., Wallingford CT, 2016.
 
 ******************************************
 Gaussian 16:  EM64W-G16RevA.03 17-Dec-2016
                21-Mar-2023 
 ******************************************
 %nprocshared=24
 Will use up to   24 processors via shared memory.
 %mem=150MW
 %chk=C:\Users\Administrator\Desktop\dataset_dft\C8H6O3\C8H6O3.chk
 --------------------------------
 # scan b3lyp/6-31++g(d,p) nosymm
 --------------------------------
 1/38=1,60=1,172=1/1,8;
 2/12=2,15=1,17=6,18=5,29=3,40=1/2;
 3/5=1,6=6,7=1111,11=2,25=1,30=1,74=-5/1,2,3;
 4//1;
 5/5=2,38=5/2;
 6/7=2,8=2,9=2,10=2,18=1,28=1/1;
 1/60=1/8(1);
 99/9=1/99;
 2/15=1,29=3/2;
 3/5=1,6=6,7=1111,11=2,25=1,30=1,74=-5/1,2,3;
 4/5=5,16=3,69=1/1;
 5/5=2,38=5/2;
 1/60=1/8(-4);
 99/9=1/99;
 -------------------
 Title Card Required
 -------------------
 Symbolic Z-matrix:
 Charge =  0 Multiplicity = 1
 C(PDBName=C,ResName=MOL,ResNum=1)
 C(PDBName=C,ResName=MOL,ResNum=1) 1    B1
 C(PDBName=C,ResName=MOL,ResNum=1) 2    B2       1    A1
 C(PDBName=C,ResName=MOL,ResNum=1) 3    B3       2    A2       1    D1       0
 C(PDBName=C,ResName=MOL,ResNum=1) 4    B4       3    A3       2    D2       0
 C(PDBName=C,ResName=MOL,ResNum=1) 5    B5       4    A4       3    D3       0
 H(PDBName=H,ResName=MOL,ResNum=1) 3    B6       2    A5       1    D4       0
 H(PDBName=H,ResName=MOL,ResNum=1) 4    B7       3    A6       2    D5       0
 H(PDBName=H,ResName=MOL,ResNum=1) 5    B8       4    A7       3    D6       0
 C(PDBName=C,ResName=MOL,ResNum=1) 6    B9       5    A8       4    D7       0
 H(PDBName=H,ResName=MOL,ResNum=1) 10   B10      6    A9       5    D8       0
 O(PDBName=O,ResName=MOL,ResNum=1) 10   B11      6    A10      5    D9       0
 C(PDBName=C,ResName=MOL,ResNum=1) 1    B12      2    A11      3    D10      0
 O(PDBName=O,ResName=MOL,ResNum=1) 13   B13      1    A12      2    D11      0
 H(PDBName=H,ResName=MOL,ResNum=1) 13   B14      1    A13      2    D12      0
 O(PDBName=O,ResName=MOL,ResNum=1) 2    B15      1    A14      6    D13      0
 H(PDBName=H,ResName=MOL,ResNum=1) 16   B16      2    A15      1    D14      0
       Variables:
  B1                    1.41641                  
  B2                    1.40184                  
  B3                    1.38781                  
  B4                    1.39983                  
  B5                    1.39322                  
  B6                    0.5    Scan 20    0.1    
  B7                    1.08584                  
  B8                    1.08429                  
  B9                    1.50117                  
  B10                   1.09924                  
  B11                   1.21883                  
  B12                   1.47258                  
  B13                   1.22018                  
  B14                   1.11368                  
  B15                   1.36399                  
  B16                   0.96533                  
  A1                  120.70717                  
  A2                  119.97852                  
  A3                  120.49469                  
  A4                  120.35814                  
  A5                  118.26997                  
  A6                  119.56241                  
  A7                  121.25035                  
  A8                  116.67023                  
  A9                  117.10294                  
  A10                 121.97992                  
  A11                 119.5188                   
  A12                 126.19501                  
  A13                 115.90757                  
  A14                 124.48956                  
  A15                 112.21443                  
  D1                    0.20052                  
  D2                   -0.48168                  
  D3                    0.18979                  
  D4                  179.51916                  
  D5                  179.72238                  
  D6                 -178.84449                  
  D7                 -175.43231                  
  D8                  156.54727                  
  D9                  -21.1966                   
  D10                -178.10749                  
  D11                 163.53528                  
  D12                 -16.9541                   
  D13                 178.79889                  
  D14                  -0.87254                  
 
 Center=      0.68166233     -0.01355784      0.11704684
 Residue   1 PDB Number     1_0 MOL charge    0.00000000 layers R        AvRTP=      0.00000000     90.00000000    172.87498365
 Scan the potential surface.
 Variable   Value     No. Steps Step-Size
 -------- ----------- --------- ---------
     6       0.500000      20      0.1000
 A total of     21 points will be computed.
 ---------------------------------------------------------------------------------------------------
                            Z-MATRIX (ANGSTROMS AND DEGREES)
   CD    Cent   Atom    N1       Length/X        N2       Alpha/Y        N3        Beta/Z          J
 ---------------------------------------------------------------------------------------------------
      1      1  C 
      2      2  C        1   1.416405(     1)
      3      3  C        2   1.401843(     2)      1  120.707(    17)
      4      4  C        3   1.387814(     3)      2  119.979(    18)      1    0.201(    32)      0
      5      5  C        4   1.399832(     4)      3  120.495(    19)      2   -0.482(    33)      0
      6      6  C        5   1.393225(     5)      4  120.358(    20)      3    0.190(    34)      0
      7      7  H        3   0.500000(     6)      2  118.270(    21)      1  179.519(    35)      0
      8      8  H        4   1.085840(     7)      3  119.562(    22)      2  179.722(    36)      0
      9      9  H        5   1.084290(     8)      4  121.250(    23)      3 -178.844(    37)      0
     10     10  C        6   1.501171(     9)      5  116.670(    24)      4 -175.432(    38)      0
     11     11  H       10   1.099244(    10)      6  117.103(    25)      5  156.547(    39)      0
     12     12  O       10   1.218834(    11)      6  121.980(    26)      5  -21.197(    40)      0
     13     13  C        1   1.472578(    12)      2  119.519(    27)      3 -178.107(    41)      0
     14     14  O       13   1.220178(    13)      1  126.195(    28)      2  163.535(    42)      0
     15     15  H       13   1.113681(    14)      1  115.908(    29)      2  -16.954(    43)      0
     16     16  O        2   1.363991(    15)      1  124.490(    30)      6  178.799(    44)      0
     17     17  H       16   0.965333(    16)      2  112.214(    31)      1   -0.873(    45)      0
 ---------------------------------------------------------------------------------------------------
                         Z-Matrix orientation:                         
 ---------------------------------------------------------------------
 Center     Atomic      Atomic             Coordinates (Angstroms)
 Number     Number       Type             X           Y           Z
 ---------------------------------------------------------------------
      1          6           0        0.000000    0.000000    0.000000
      2          6           0        0.000000    0.000000    1.416405
      3          6           0        1.205288    0.000000    2.132257
      4          6           0        2.415384    0.004207    1.452790
      5          6           0        2.444256   -0.001670    0.053268
      6          6           0        1.256849   -0.007847   -0.675499
      7          1           0        1.184034    0.003696    2.631792
      8          1           0        3.344911    0.008756    2.014044
      9          1           0        3.382535   -0.017173   -0.489941
     10          6           0        1.382332   -0.120696   -2.167154
     11          1           0        0.515109   -0.517038   -2.714123
     12          8           0        2.410696    0.171714   -2.752405
     13          6           0       -1.280730    0.042319   -0.725552
     14          8           0       -1.433175    0.326596   -1.902319
     15          1           0       -2.185439   -0.220064   -0.131464
     16          8           0       -1.123825    0.030583    2.188773
     17          1           0       -1.929967    0.066134    1.658925
 ---------------------------------------------------------------------
                    Distance matrix (angstroms):
                    1          2          3          4          5
     1  C    0.000000
     2  C    1.416405   0.000000
     3  C    2.449335   1.401843   0.000000
     4  C    2.818634   2.415662   1.387814   0.000000
     5  C    2.444837   2.798667   2.420174   1.399832   0.000000
     6  C    1.426895   2.440449   2.808240   2.423213   1.393225
     7  H    2.885875   1.696795   0.500000   1.704779   2.870013
     8  H    3.904469   3.397894   2.142905   1.085840   2.157760
     9  H    3.417877   3.882782   3.408317   2.170263   1.084290
    10  C    2.573318   3.842825   4.304747   3.766535   2.464168
    11  H    2.810539   4.194512   4.922507   4.609327   3.412574
    12  O    3.662878   4.818706   5.034126   4.208532   2.811226
    13  C    1.472578   2.496005   3.788027   4.290441   3.805787
    14  O    2.404054   3.629682   4.831766   5.115868   4.355061
    15  H    2.200421   2.687093   4.082877   4.871112   4.638523
    16  O    2.460619   1.363991   2.329999   3.615020   4.158441
    17  H    2.545816   1.946269   3.171473   4.350679   4.660103
                    6          7          8          9         10
     6  C    0.000000
     7  H    3.308112   0.000000
     8  H    3.404985   2.247450   0.000000
     9  H    2.133791   3.818254   2.504402   0.000000
    10  C    1.501171   4.804651   4.620702   2.612388   0.000000
    11  H    2.228327   5.412709   5.535323   3.663193   1.099244
    12  O    2.382676   5.524718   4.859871   2.469594   1.218834
    13  C    2.538568   4.165130   5.376157   4.669592   3.032603
    14  O    2.975428   5.245208   6.186197   5.030314   2.863091
    15  H    3.491468   4.363369   5.936357   5.583189   4.108880
    16  O    3.724666   2.350149   4.472205   5.242621   5.027704
    17  H    3.951051   3.263030   5.287130   5.731252   5.064100
                   11         12         13         14         15
    11  H    0.000000
    12  O    2.017199   0.000000
    13  C    2.737212   4.213253   0.000000
    14  O    2.273006   3.939794   1.220178   0.000000
    15  H    3.748503   5.305401   1.113681   2.000167   0.000000
    16  O    5.198498   6.076842   2.918570   4.113437   2.563854
    17  H    5.044010   6.189696   2.471398   3.605150   1.831029
                   16         17
    16  O    0.000000
    17  H    0.965333   0.000000
 Symmetry turned off by external request.
 Stoichiometry    C8H6O3
 Framework group  C1[X(C8H6O3)]
 Deg. of freedom    45
 Full point group                 C1      NOp   1
 Rotational constants (GHZ):           1.5389448           1.0812558           0.6380661
 Standard basis: 6-31++G(d,p) (6D, 7F)
   245 basis functions,   400 primitive gaussians,   245 cartesian basis functions
    39 alpha electrons       39 beta electrons
       nuclear repulsion energy       566.2991652923 Hartrees.
 NAtoms=   17 NActive=   17 NUniq=   17 SFac= 1.00D+00 NAtFMM=   60 NAOKFM=F Big=F
 Integral buffers will be    131072 words long.
 Raffenetti 2 integral format.
 Two-electron integral symmetry is turned off.
 One-electron integrals computed using PRISM.
 NBasis=   245 RedAO= T EigKep=  2.05D-06  NBF=   245
 NBsUse=   244 1.00D-06 EigRej=  5.73D-07 NBFU=   244
 ExpMin= 3.60D-02 ExpMax= 5.48D+03 ExpMxC= 8.25D+02 IAcc=3 IRadAn=         5 AccDes= 0.00D+00
 Harris functional with IExCor=  402 and IRadAn=       5 diagonalized for initial guess.
 HarFok:  IExCor=  402 AccDes= 0.00D+00 IRadAn=         5 IDoV= 1 UseB2=F ITyADJ=14
 ICtDFT=  3500011 ScaDFX=  1.000000  1.000000  1.000000  1.000000
 FoFCou: FMM=F IPFlag=           0 FMFlag=      100000 FMFlg1=           0
         NFxFlg=           0 DoJE=T BraDBF=F KetDBF=T FulRan=T
         wScrn=  0.000000 ICntrl=       500 IOpCl=  0 I1Cent=   200000004 NGrid=           0
         NMat0=    1 NMatS0=      1 NMatT0=    0 NMatD0=    1 NMtDS0=    0 NMtDT0=    0
 Symmetry not used in FoFCou.
 Requested convergence on RMS density matrix=1.00D-08 within 128 cycles.
 Requested convergence on MAX density matrix=1.00D-06.
 Requested convergence on             energy=1.00D-06.
 No special actions if energy rises.
 SCF Done:  E(RB3LYP) =  -533.209655665     A.U. after   15 cycles
            NFock= 15  Conv=0.83D-08     -V/T= 2.0038

 **********************************************************************

            Population analysis using the SCF density.

 **********************************************************************

 Alpha  occ. eigenvalues --  -19.22862 -19.18320 -19.16682 -10.31362 -10.30529
 Alpha  occ. eigenvalues --  -10.29078 -10.25652 -10.24307 -10.24149 -10.23818
 Alpha  occ. eigenvalues --  -10.22305  -1.10873  -1.07667  -1.05881  -0.89978
 Alpha  occ. eigenvalues --   -0.83195  -0.79275  -0.72001  -0.69287  -0.63438
 Alpha  occ. eigenvalues --   -0.61896  -0.57730  -0.55121  -0.52836  -0.50076
 Alpha  occ. eigenvalues --   -0.48243  -0.46624  -0.45830  -0.45001  -0.43561
 Alpha  occ. eigenvalues --   -0.41979  -0.40962  -0.40277  -0.39912  -0.36683
 Alpha  occ. eigenvalues --   -0.29866  -0.29362  -0.26867  -0.26669
 Alpha virt. eigenvalues --   -0.11017  -0.06689  -0.02864  -0.00722  -0.00496
 Alpha virt. eigenvalues --    0.00328   0.01671   0.02119   0.03052   0.03911
 Alpha virt. eigenvalues --    0.04582   0.05909   0.06250   0.06619   0.07770
 Alpha virt. eigenvalues --    0.08306   0.09260   0.10113   0.10648   0.11031
 Alpha virt. eigenvalues --    0.11352   0.11528   0.12252   0.12518   0.13060
 Alpha virt. eigenvalues --    0.13795   0.14242   0.14847   0.15382   0.16295
 Alpha virt. eigenvalues --    0.16705   0.16869   0.17407   0.18151   0.18289
 Alpha virt. eigenvalues --    0.19907   0.19986   0.20719   0.22090   0.22637
 Alpha virt. eigenvalues --    0.23506   0.24483   0.24695   0.25318   0.25914
 Alpha virt. eigenvalues --    0.26148   0.26660   0.27133   0.28288   0.29030
 Alpha virt. eigenvalues --    0.29362   0.30072   0.31322   0.31579   0.32164
 Alpha virt. eigenvalues --    0.32501   0.33317   0.35033   0.35732   0.37102
 Alpha virt. eigenvalues --    0.37602   0.37880   0.39261   0.39920   0.41779
 Alpha virt. eigenvalues --    0.43072   0.45893   0.47775   0.48286   0.57340
 Alpha virt. eigenvalues --    0.58010   0.63547   0.65510   0.66949   0.68121
 Alpha virt. eigenvalues --    0.70000   0.70369   0.71554   0.72014   0.73515
 Alpha virt. eigenvalues --    0.74344   0.75507   0.76007   0.78844   0.82013
 Alpha virt. eigenvalues --    0.82968   0.84634   0.87101   0.91397   0.92843
 Alpha virt. eigenvalues --    0.97370   0.99863   1.00916   1.02554   1.06306
 Alpha virt. eigenvalues --    1.06920   1.08510   1.09867   1.11833   1.14417
 Alpha virt. eigenvalues --    1.15969   1.16485   1.18045   1.19831   1.21352
 Alpha virt. eigenvalues --    1.21858   1.22483   1.25036   1.26711   1.27901
 Alpha virt. eigenvalues --    1.29828   1.31978   1.33066   1.33487   1.35097
 Alpha virt. eigenvalues --    1.36151   1.37395   1.39793   1.39983   1.40625
 Alpha virt. eigenvalues --    1.43782   1.47789   1.48384   1.52339   1.55420
 Alpha virt. eigenvalues --    1.62124   1.62343   1.67059   1.69147   1.72095
 Alpha virt. eigenvalues --    1.72786   1.73734   1.75348   1.76641   1.81080
 Alpha virt. eigenvalues --    1.83151   1.85464   1.87015   1.88950   1.91369
 Alpha virt. eigenvalues --    1.91723   1.96612   1.99141   1.99784   2.01903
 Alpha virt. eigenvalues --    2.02411   2.03718   2.10074   2.15398   2.16017
 Alpha virt. eigenvalues --    2.19649   2.21873   2.23779   2.24941   2.26673
 Alpha virt. eigenvalues --    2.32152   2.35700   2.38098   2.40700   2.41379
 Alpha virt. eigenvalues --    2.42473   2.45190   2.47395   2.49144   2.52102
 Alpha virt. eigenvalues --    2.53730   2.58335   2.59626   2.60575   2.62989
 Alpha virt. eigenvalues --    2.64933   2.67369   2.68009   2.68858   2.74868
 Alpha virt. eigenvalues --    2.84571   2.89328   2.91931   2.98671   3.03034
 Alpha virt. eigenvalues --    3.04845   3.11307   3.12383   3.15044   3.21024
 Alpha virt. eigenvalues --    3.29954   3.35237   3.42029   3.45913   3.48310
 Alpha virt. eigenvalues --    3.51358   3.79554   4.04958   4.18967   4.20028
 Alpha virt. eigenvalues --    4.21973   4.26306   4.28852   4.41871   4.43785
 Alpha virt. eigenvalues --    4.51013   4.57036   4.61386   4.84892  10.14471
          Condensed to atoms (all electrons):
               1          2          3          4          5          6
     1  C   15.902470  -0.534931  -4.077105   2.479449  -4.074312  -3.205891
     2  C   -0.534931  11.497556  -0.495826   1.462567  -0.796074  -5.730861
     3  C   -4.077105  -0.495826  11.400836  -1.456445   0.036804   1.441316
     4  C    2.479449   1.462567  -1.456445   8.851017  -1.911367  -2.808529
     5  C   -4.074312  -0.796074   0.036804  -1.911367  10.606263   3.058493
     6  C   -3.205891  -5.730861   1.441316  -2.808529   3.058493  15.795618
     7  H   -0.873827  -1.175599  -0.927777  -2.342714   0.728371   1.401248
     8  H    0.182084   0.087950  -0.184108   0.599315  -0.170376  -0.115606
     9  H    0.191341   0.056084  -0.055652   0.025465   0.129513   0.020650
    10  C    0.355640  -0.044209   0.841564  -0.564264  -0.838747  -0.958208
    11  H    0.141246   0.000914  -0.007568   0.016941  -0.008950  -0.293127
    12  O   -0.010998  -0.007051   0.005014   0.100471   0.004243  -0.230209
    13  C   -0.295449   1.833880  -1.178836   1.145156  -0.740991  -2.654224
    14  O   -0.028036   0.147405   0.059389  -0.010836  -0.105150  -0.308955
    15  H   -0.219424   0.084928   0.003533   0.009528  -0.064022  -0.116027
    16  O    0.271478   0.281921  -0.558371   0.175876  -0.018736  -0.125209
    17  H   -0.310539   0.171998   0.196503  -0.021892   0.003681   0.005671
               7          8          9         10         11         12
     1  C   -0.873827   0.182084   0.191341   0.355640   0.141246  -0.010998
     2  C   -1.175599   0.087950   0.056084  -0.044209   0.000914  -0.007051
     3  C   -0.927777  -0.184108  -0.055652   0.841564  -0.007568   0.005014
     4  C   -2.342714   0.599315   0.025465  -0.564264   0.016941   0.100471
     5  C    0.728371  -0.170376   0.129513  -0.838747  -0.008950   0.004243
     6  C    1.401248  -0.115606   0.020650  -0.958208  -0.293127  -0.230209
     7  H    6.206089  -0.245401  -0.028425   0.127910   0.002238   0.001380
     8  H   -0.245401   0.663513   0.003976  -0.036712  -0.000033   0.001047
     9  H   -0.028425   0.003976   0.569975  -0.077388   0.005776  -0.005544
    10  C    0.127910  -0.036712  -0.077388   6.977302   0.390083   0.409232
    11  H    0.002238  -0.000033   0.005776   0.390083   0.669376  -0.061650
    12  O    0.001380   0.001047  -0.005544   0.409232  -0.061650   8.118140
    13  C   -0.471616   0.042283   0.011035  -0.829471  -0.000427   0.023876
    14  O    0.001629  -0.000250  -0.001426   0.102576  -0.022400   0.000202
    15  H   -0.002900   0.000012  -0.000560   0.032381   0.004384   0.000250
    16  O   -0.269960   0.004730   0.001316  -0.012800  -0.000242   0.000040
    17  H    0.013231  -0.000686  -0.000025   0.004852  -0.000316  -0.000024
              13         14         15         16         17
     1  C   -0.295449  -0.028036  -0.219424   0.271478  -0.310539
     2  C    1.833880   0.147405   0.084928   0.281921   0.171998
     3  C   -1.178836   0.059389   0.003533  -0.558371   0.196503
     4  C    1.145156  -0.010836   0.009528   0.175876  -0.021892
     5  C   -0.740991  -0.105150  -0.064022  -0.018736   0.003681
     6  C   -2.654224  -0.308955  -0.116027  -0.125209   0.005671
     7  H   -0.471616   0.001629  -0.002900  -0.269960   0.013231
     8  H    0.042283  -0.000250   0.000012   0.004730  -0.000686
     9  H    0.011035  -0.001426  -0.000560   0.001316  -0.000025
    10  C   -0.829471   0.102576   0.032381  -0.012800   0.004852
    11  H   -0.000427  -0.022400   0.004384  -0.000242  -0.000316
    12  O    0.023876   0.000202   0.000250   0.000040  -0.000024
    13  C    8.441331   0.374104   0.420627   0.092649  -0.036879
    14  O    0.374104   8.205263  -0.045180  -0.000243   0.001878
    15  H    0.420627  -0.045180   0.863138  -0.020283  -0.004663
    16  O    0.092649  -0.000243  -0.020283   8.459381   0.167250
    17  H   -0.036879   0.001878  -0.004663   0.167250   0.440643
 Mulliken charges:
               1
     1  C    0.106803
     2  C   -0.840651
     3  C    0.956733
     4  C    0.250261
     5  C    0.161357
     6  C    0.823850
     7  H   -1.143877
     8  H    0.168263
     9  H    0.153890
    10  C    0.120257
    11  H    0.163755
    12  O   -0.348418
    13  C   -0.177049
    14  O   -0.369969
    15  H    0.054278
    16  O   -0.448799
    17  H    0.369317
 Sum of Mulliken charges =   0.00000
 Mulliken charges with hydrogens summed into heavy atoms:
               1
     1  C    0.106803
     2  C   -0.840651
     3  C   -0.187145
     4  C    0.418524
     5  C    0.315246
     6  C    0.823850
    10  C    0.284012
    12  O   -0.348418
    13  C   -0.122771
    14  O   -0.369969
    16  O   -0.079482
 Electronic spatial extent (au):  <R**2>=           1766.2926
 Charge=              0.0000 electrons
 Dipole moment (field-independent basis, Debye):
    X=             -1.0382    Y=             -1.0739    Z=              4.0223  Tot=              4.2907
 Quadrupole moment (field-independent basis, Debye-Ang):
   XX=            -60.4528   YY=            -63.7862   ZZ=            -75.6015
   XY=             -0.4831   XZ=              6.3731   YZ=              3.1282
 Traceless Quadrupole moment (field-independent basis, Debye-Ang):
   XX=              6.1607   YY=              2.8273   ZZ=             -8.9880
   XY=             -0.4831   XZ=              6.3731   YZ=              3.1282
 Octapole moment (field-independent basis, Debye-Ang**2):
  XXX=           -127.5807  YYY=             -5.6704  ZZZ=             44.5022  XYY=            -43.7563
  XXY=             -5.8962  XXZ=             49.1042  XZZ=            -47.1749  YZZ=             -8.9556
  YYZ=              2.4513  XYZ=              1.1582
 Hexadecapole moment (field-independent basis, Debye-Ang**3):
 XXXX=          -1015.8937 YYYY=            -74.4861 ZZZZ=          -1237.2775 XXXY=             -1.8241
 XXXZ=            114.4191 YYYX=              4.2952 YYYZ=             10.4628 ZZZX=            147.4667
 ZZZY=             27.1774 XXYY=           -200.8626 XXZZ=           -436.1073 YYZZ=           -201.1488
 XXYZ=             15.1299 YYXZ=             13.3105 ZZXY=             -2.8271
 N-N= 5.662991652923D+02 E-N=-2.377154967666D+03  KE= 5.311711284449D+02
 Variable Step   Value    
 -------- ---- -----------
     6       1    1.133836
 ---------------------------------------------------------------------------------------------------
                            Z-MATRIX (ANGSTROMS AND DEGREES)
   CD    Cent   Atom    N1       Length/X        N2       Alpha/Y        N3        Beta/Z          J
 ---------------------------------------------------------------------------------------------------
      1      1  C 
      2      2  C        1   1.416405(     1)
      3      3  C        2   1.401843(     2)      1  120.707(    17)
      4      4  C        3   1.387814(     3)      2  119.979(    18)      1    0.201(    32)      0
      5      5  C        4   1.399832(     4)      3  120.495(    19)      2   -0.482(    33)      0
      6      6  C        5   1.393225(     5)      4  120.358(    20)      3    0.190(    34)      0
      7      7  H        3   0.600000(     6)      2  118.270(    21)      1  179.519(    35)      0
      8      8  H        4   1.085840(     7)      3  119.562(    22)      2  179.722(    36)      0
      9      9  H        5   1.084290(     8)      4  121.250(    23)      3 -178.844(    37)      0
     10     10  C        6   1.501171(     9)      5  116.670(    24)      4 -175.432(    38)      0
     11     11  H       10   1.099244(    10)      6  117.103(    25)      5  156.547(    39)      0
     12     12  O       10   1.218834(    11)      6  121.980(    26)      5  -21.197(    40)      0
     13     13  C        1   1.472578(    12)      2  119.519(    27)      3 -178.107(    41)      0
     14     14  O       13   1.220178(    13)      1  126.195(    28)      2  163.535(    42)      0
     15     15  H       13   1.113681(    14)      1  115.908(    29)      2  -16.954(    43)      0
     16     16  O        2   1.363991(    15)      1  124.490(    30)      6  178.799(    44)      0
     17     17  H       16   0.965333(    16)      2  112.214(    31)      1   -0.873(    45)      0
 ---------------------------------------------------------------------------------------------------
                         Z-Matrix orientation:                         
 ---------------------------------------------------------------------
 Center     Atomic      Atomic             Coordinates (Angstroms)
 Number     Number       Type             X           Y           Z
 ---------------------------------------------------------------------
      1          6           0        0.000000    0.000000    0.000000
      2          6           0        0.000000    0.000000    1.416405
      3          6           0        1.205288    0.000000    2.132257
      4          6           0        2.415384    0.004207    1.452790
      5          6           0        2.444256   -0.001670    0.053268
      6          6           0        1.256849   -0.007847   -0.675499
      7          1           0        1.179783    0.004435    2.731698
      8          1           0        3.344911    0.008756    2.014044
      9          1           0        3.382535   -0.017173   -0.489941
     10          6           0        1.382332   -0.120696   -2.167154
     11          1           0        0.515109   -0.517038   -2.714123
     12          8           0        2.410696    0.171714   -2.752405
     13          6           0       -1.280730    0.042319   -0.725552
     14          8           0       -1.433175    0.326596   -1.902319
     15          1           0       -2.185439   -0.220064   -0.131464
     16          8           0       -1.123825    0.030583    2.188773
     17          1           0       -1.929967    0.066134    1.658925
 ---------------------------------------------------------------------
                    Distance matrix (angstroms):
                    1          2          3          4          5
     1  C    0.000000
     2  C    1.416405   0.000000
     3  C    2.449335   1.401843   0.000000
     4  C    2.818634   2.415662   1.387814   0.000000
     5  C    2.444837   2.798667   2.420174   1.399832   0.000000
     6  C    1.426895   2.440449   2.808240   2.423213   1.393225
     7  H    2.975581   1.766891   0.600000   1.778291   2.961911
     8  H    3.904469   3.397894   2.142905   1.085840   2.157760
     9  H    3.417877   3.882782   3.408317   2.170263   1.084290
    10  C    2.573318   3.842825   4.304747   3.766535   2.464168
    11  H    2.810539   4.194512   4.922507   4.609327   3.412574
    12  O    3.662878   4.818706   5.034126   4.208532   2.811226
    13  C    1.472578   2.496005   3.788027   4.290441   3.805787
    14  O    2.404054   3.629682   4.831766   5.115868   4.355061
    15  H    2.200421   2.687093   4.082877   4.871112   4.638523
    16  O    2.460619   1.363991   2.329999   3.615020   4.158441
    17  H    2.545816   1.946269   3.171473   4.350679   4.660103
                    6          7          8          9         10
     6  C    0.000000
     7  H    3.408091   0.000000
     8  H    3.404985   2.280971   0.000000
     9  H    2.133791   3.902761   2.504402   0.000000
    10  C    1.501171   4.904634   4.620702   2.612388   0.000000
    11  H    2.228327   5.510961   5.535323   3.663193   1.099244
    12  O    2.382676   5.623035   4.859871   2.469594   1.218834
    13  C    2.538568   4.243600   5.376157   4.669592   3.032603
    14  O    2.975428   5.329677   6.186197   5.030314   2.863091
    15  H    3.491468   4.424117   5.936357   5.583189   4.108880
    16  O    3.724666   2.366867   4.472205   5.242621   5.027704
    17  H    3.951051   3.290166   5.287130   5.731252   5.064100
                   11         12         13         14         15
    11  H    0.000000
    12  O    2.017199   0.000000
    13  C    2.737212   4.213253   0.000000
    14  O    2.273006   3.939794   1.220178   0.000000
    15  H    3.748503   5.305401   1.113681   2.000167   0.000000
    16  O    5.198498   6.076842   2.918570   4.113437   2.563854
    17  H    5.044010   6.189696   2.471398   3.605150   1.831029
                   16         17
    16  O    0.000000
    17  H    0.965333   0.000000
 Symmetry turned off by external request.
 Stoichiometry    C8H6O3
 Framework group  C1[X(C8H6O3)]
 Deg. of freedom    45
 Full point group                 C1      NOp   1
 Rotational constants (GHZ):           1.5384751           1.0801925           0.6376156
 Standard basis: 6-31++G(d,p) (6D, 7F)
   245 basis functions,   400 primitive gaussians,   245 cartesian basis functions
    39 alpha electrons       39 beta electrons
       nuclear repulsion energy       564.9162485479 Hartrees.
 NAtoms=   17 NActive=   17 NUniq=   17 SFac= 1.00D+00 NAtFMM=   60 NAOKFM=F Big=F
 Integral buffers will be    131072 words long.
 Raffenetti 2 integral format.
 Two-electron integral symmetry is turned off.
 One-electron integrals computed using PRISM.
 NBasis=   245 RedAO= T EigKep=  2.04D-06  NBF=   245
 NBsUse=   244 1.00D-06 EigRej=  5.64D-07 NBFU=   244
 Initial guess from the checkpoint file:  "C:\Users\Administrator\Desktop\dataset_dft\C8H6O3\C8H6O3.chk"
 B after Tr=    -0.000133    0.000012    0.002234
         Rot=    1.000000    0.000011    0.000082   -0.000004 Ang=   0.01 deg.
 ExpMin= 3.60D-02 ExpMax= 5.48D+03 ExpMxC= 8.25D+02 IAcc=3 IRadAn=         5 AccDes= 0.00D+00
 Harris functional with IExCor=  402 and IRadAn=       5 diagonalized for initial guess.
 HarFok:  IExCor=  402 AccDes= 0.00D+00 IRadAn=         5 IDoV= 1 UseB2=F ITyADJ=14
 ICtDFT=  3500011 ScaDFX=  1.000000  1.000000  1.000000  1.000000
 FoFCou: FMM=F IPFlag=           0 FMFlag=      100000 FMFlg1=           0
         NFxFlg=           0 DoJE=T BraDBF=F KetDBF=T FulRan=T
         wScrn=  0.000000 ICntrl=       500 IOpCl=  0 I1Cent=   200000004 NGrid=           0
         NMat0=    1 NMatS0=      1 NMatT0=    0 NMatD0=    1 NMtDS0=    0 NMtDT0=    0
 Symmetry not used in FoFCou.
 Requested convergence on RMS density matrix=1.00D-08 within 128 cycles.
 Requested convergence on MAX density matrix=1.00D-06.
 Requested convergence on             energy=1.00D-06.
 No special actions if energy rises.
 SCF Done:  E(RB3LYP) =  -533.667126308     A.U. after   13 cycles
            NFock= 13  Conv=0.27D-08     -V/T= 2.0058
 Variable Step   Value    
 -------- ---- -----------
     6       2    1.322808
 ---------------------------------------------------------------------------------------------------
                            Z-MATRIX (ANGSTROMS AND DEGREES)
   CD    Cent   Atom    N1       Length/X        N2       Alpha/Y        N3        Beta/Z          J
 ---------------------------------------------------------------------------------------------------
      1      1  C 
      2      2  C        1   1.416405(     1)
      3      3  C        2   1.401843(     2)      1  120.707(    17)
      4      4  C        3   1.387814(     3)      2  119.979(    18)      1    0.201(    32)      0
      5      5  C        4   1.399832(     4)      3  120.495(    19)      2   -0.482(    33)      0
      6      6  C        5   1.393225(     5)      4  120.358(    20)      3    0.190(    34)      0
      7      7  H        3   0.700000(     6)      2  118.270(    21)      1  179.519(    35)      0
      8      8  H        4   1.085840(     7)      3  119.562(    22)      2  179.722(    36)      0
      9      9  H        5   1.084290(     8)      4  121.250(    23)      3 -178.844(    37)      0
     10     10  C        6   1.501171(     9)      5  116.670(    24)      4 -175.432(    38)      0
     11     11  H       10   1.099244(    10)      6  117.103(    25)      5  156.547(    39)      0
     12     12  O       10   1.218834(    11)      6  121.980(    26)      5  -21.197(    40)      0
     13     13  C        1   1.472578(    12)      2  119.519(    27)      3 -178.107(    41)      0
     14     14  O       13   1.220178(    13)      1  126.195(    28)      2  163.535(    42)      0
     15     15  H       13   1.113681(    14)      1  115.908(    29)      2  -16.954(    43)      0
     16     16  O        2   1.363991(    15)      1  124.490(    30)      6  178.799(    44)      0
     17     17  H       16   0.965333(    16)      2  112.214(    31)      1   -0.873(    45)      0
 ---------------------------------------------------------------------------------------------------
                         Z-Matrix orientation:                         
 ---------------------------------------------------------------------
 Center     Atomic      Atomic             Coordinates (Angstroms)
 Number     Number       Type             X           Y           Z
 ---------------------------------------------------------------------
      1          6           0        0.000000    0.000000    0.000000
      2          6           0        0.000000    0.000000    1.416405
      3          6           0        1.205288    0.000000    2.132257
      4          6           0        2.415384    0.004207    1.452790
      5          6           0        2.444256   -0.001670    0.053268
      6          6           0        1.256849   -0.007847   -0.675499
      7          1           0        1.175532    0.005174    2.831605
      8          1           0        3.344911    0.008756    2.014044
      9          1           0        3.382535   -0.017173   -0.489941
     10          6           0        1.382332   -0.120696   -2.167154
     11          1           0        0.515109   -0.517038   -2.714123
     12          8           0        2.410696    0.171714   -2.752405
     13          6           0       -1.280730    0.042319   -0.725552
     14          8           0       -1.433175    0.326596   -1.902319
     15          1           0       -2.185439   -0.220064   -0.131464
     16          8           0       -1.123825    0.030583    2.188773
     17          1           0       -1.929967    0.066134    1.658925
 ---------------------------------------------------------------------
                    Distance matrix (angstroms):
                    1          2          3          4          5
     1  C    0.000000
     2  C    1.416405   0.000000
     3  C    2.449335   1.401843   0.000000
     4  C    2.818634   2.415662   1.387814   0.000000
     5  C    2.444837   2.798667   2.420174   1.399832   0.000000
     6  C    1.426895   2.440449   2.808240   2.423213   1.393225
     7  H    3.065924   1.839753   0.700000   1.854284   3.054319
     8  H    3.904469   3.397894   2.142905   1.085840   2.157760
     9  H    3.417877   3.882782   3.408317   2.170263   1.084290
    10  C    2.573318   3.842825   4.304747   3.766535   2.464168
    11  H    2.810539   4.194512   4.922507   4.609327   3.412574
    12  O    3.662878   4.818706   5.034126   4.208532   2.811226
    13  C    1.472578   2.496005   3.788027   4.290441   3.805787
    14  O    2.404054   3.629682   4.831766   5.115868   4.355061
    15  H    2.200421   2.687093   4.082877   4.871112   4.638523
    16  O    2.460619   1.363991   2.329999   3.615020   4.158441
    17  H    2.545816   1.946269   3.171473   4.350679   4.660103
                    6          7          8          9         10
     6  C    0.000000
     7  H    3.508071   0.000000
     8  H    3.404985   2.318324   0.000000
     9  H    2.133791   3.987986   2.504402   0.000000
    10  C    1.501171   5.004618   4.620702   2.612388   0.000000
    11  H    2.228327   5.609275   5.535323   3.663193   1.099244
    12  O    2.382676   5.721411   4.859871   2.469594   1.218834
    13  C    2.538568   4.322959   5.376157   4.669592   3.032603
    14  O    2.975428   5.414675   6.186197   5.030314   2.863091
    15  H    3.491468   4.486272   5.936357   5.583189   4.108880
    16  O    3.724666   2.387660   4.472205   5.242621   5.027704
    17  H    3.951051   3.320093   5.287130   5.731252   5.064100
                   11         12         13         14         15
    11  H    0.000000
    12  O    2.017199   0.000000
    13  C    2.737212   4.213253   0.000000
    14  O    2.273006   3.939794   1.220178   0.000000
    15  H    3.748503   5.305401   1.113681   2.000167   0.000000
    16  O    5.198498   6.076842   2.918570   4.113437   2.563854
    17  H    5.044010   6.189696   2.471398   3.605150   1.831029
                   16         17
    16  O    0.000000
    17  H    0.965333   0.000000
 Symmetry turned off by external request.
 Stoichiometry    C8H6O3
 Framework group  C1[X(C8H6O3)]
 Deg. of freedom    45
 Full point group                 C1      NOp   1
 Rotational constants (GHZ):           1.5379996           1.0790882           0.6371497
 Standard basis: 6-31++G(d,p) (6D, 7F)
   245 basis functions,   400 primitive gaussians,   245 cartesian basis functions
    39 alpha electrons       39 beta electrons
       nuclear repulsion energy       563.8464310891 Hartrees.
 NAtoms=   17 NActive=   17 NUniq=   17 SFac= 1.00D+00 NAtFMM=   60 NAOKFM=F Big=F
 Integral buffers will be    131072 words long.
 Raffenetti 2 integral format.
 Two-electron integral symmetry is turned off.
 One-electron integrals computed using PRISM.
 NBasis=   245 RedAO= T EigKep=  2.04D-06  NBF=   245
 NBsUse=   244 1.00D-06 EigRej=  5.55D-07 NBFU=   244
 Initial guess from the checkpoint file:  "C:\Users\Administrator\Desktop\dataset_dft\C8H6O3\C8H6O3.chk"
 B after Tr=    -0.000133    0.000012    0.002234
         Rot=    1.000000    0.000011    0.000081   -0.000004 Ang=   0.01 deg.
 ExpMin= 3.60D-02 ExpMax= 5.48D+03 ExpMxC= 8.25D+02 IAcc=3 IRadAn=         5 AccDes= 0.00D+00
 Harris functional with IExCor=  402 and IRadAn=       5 diagonalized for initial guess.
 HarFok:  IExCor=  402 AccDes= 0.00D+00 IRadAn=         5 IDoV= 1 UseB2=F ITyADJ=14
 ICtDFT=  3500011 ScaDFX=  1.000000  1.000000  1.000000  1.000000
 FoFCou: FMM=F IPFlag=           0 FMFlag=      100000 FMFlg1=           0
         NFxFlg=           0 DoJE=T BraDBF=F KetDBF=T FulRan=T
         wScrn=  0.000000 ICntrl=       500 IOpCl=  0 I1Cent=   200000004 NGrid=           0
         NMat0=    1 NMatS0=      1 NMatT0=    0 NMatD0=    1 NMtDS0=    0 NMtDT0=    0
 Symmetry not used in FoFCou.
 Requested convergence on RMS density matrix=1.00D-08 within 128 cycles.
 Requested convergence on MAX density matrix=1.00D-06.
 Requested convergence on             energy=1.00D-06.
 No special actions if energy rises.
 SCF Done:  E(RB3LYP) =  -533.912669306     A.U. after   13 cycles
            NFock= 13  Conv=0.73D-08     -V/T= 2.0071
 Variable Step   Value    
 -------- ---- -----------
     6       3    1.511781
 ---------------------------------------------------------------------------------------------------
                            Z-MATRIX (ANGSTROMS AND DEGREES)
   CD    Cent   Atom    N1       Length/X        N2       Alpha/Y        N3        Beta/Z          J
 ---------------------------------------------------------------------------------------------------
      1      1  C 
      2      2  C        1   1.416405(     1)
      3      3  C        2   1.401843(     2)      1  120.707(    17)
      4      4  C        3   1.387814(     3)      2  119.979(    18)      1    0.201(    32)      0
      5      5  C        4   1.399832(     4)      3  120.495(    19)      2   -0.482(    33)      0
      6      6  C        5   1.393225(     5)      4  120.358(    20)      3    0.190(    34)      0
      7      7  H        3   0.800000(     6)      2  118.270(    21)      1  179.519(    35)      0
      8      8  H        4   1.085840(     7)      3  119.562(    22)      2  179.722(    36)      0
      9      9  H        5   1.084290(     8)      4  121.250(    23)      3 -178.844(    37)      0
     10     10  C        6   1.501171(     9)      5  116.670(    24)      4 -175.432(    38)      0
     11     11  H       10   1.099244(    10)      6  117.103(    25)      5  156.547(    39)      0
     12     12  O       10   1.218834(    11)      6  121.980(    26)      5  -21.197(    40)      0
     13     13  C        1   1.472578(    12)      2  119.519(    27)      3 -178.107(    41)      0
     14     14  O       13   1.220178(    13)      1  126.195(    28)      2  163.535(    42)      0
     15     15  H       13   1.113681(    14)      1  115.908(    29)      2  -16.954(    43)      0
     16     16  O        2   1.363991(    15)      1  124.490(    30)      6  178.799(    44)      0
     17     17  H       16   0.965333(    16)      2  112.214(    31)      1   -0.873(    45)      0
 ---------------------------------------------------------------------------------------------------
                         Z-Matrix orientation:                         
 ---------------------------------------------------------------------
 Center     Atomic      Atomic             Coordinates (Angstroms)
 Number     Number       Type             X           Y           Z
 ---------------------------------------------------------------------
      1          6           0        0.000000    0.000000    0.000000
      2          6           0        0.000000    0.000000    1.416405
      3          6           0        1.205288    0.000000    2.132257
      4          6           0        2.415384    0.004207    1.452790
      5          6           0        2.444256   -0.001670    0.053268
      6          6           0        1.256849   -0.007847   -0.675499
      7          1           0        1.171281    0.005913    2.931512
      8          1           0        3.344911    0.008756    2.014044
      9          1           0        3.382535   -0.017173   -0.489941
     10          6           0        1.382332   -0.120696   -2.167154
     11          1           0        0.515109   -0.517038   -2.714123
     12          8           0        2.410696    0.171714   -2.752405
     13          6           0       -1.280730    0.042319   -0.725552
     14          8           0       -1.433175    0.326596   -1.902319
     15          1           0       -2.185439   -0.220064   -0.131464
     16          8           0       -1.123825    0.030583    2.188773
     17          1           0       -1.929967    0.066134    1.658925
 ---------------------------------------------------------------------
                    Distance matrix (angstroms):
                    1          2          3          4          5
     1  C    0.000000
     2  C    1.416405   0.000000
     3  C    2.449335   1.401843   0.000000
     4  C    2.818634   2.415662   1.387814   0.000000
     5  C    2.444837   2.798667   2.420174   1.399832   0.000000
     6  C    1.426895   2.440449   2.808240   2.423213   1.393225
     7  H    3.156849   1.915067   0.800000   1.932464   3.147191
     8  H    3.904469   3.397894   2.142905   1.085840   2.157760
     9  H    3.417877   3.882782   3.408317   2.170263   1.084290
    10  C    2.573318   3.842825   4.304747   3.766535   2.464168
    11  H    2.810539   4.194512   4.922507   4.609327   3.412574
    12  O    3.662878   4.818706   5.034126   4.208532   2.811226
    13  C    1.472578   2.496005   3.788027   4.290441   3.805787
    14  O    2.404054   3.629682   4.831766   5.115868   4.355061
    15  H    2.200421   2.687093   4.082877   4.871112   4.638523
    16  O    2.460619   1.363991   2.329999   3.615020   4.158441
    17  H    2.545816   1.946269   3.171473   4.350679   4.660103
                    6          7          8          9         10
     6  C    0.000000
     7  H    3.608052   0.000000
     8  H    3.404985   2.359327   0.000000
     9  H    2.133791   4.073883   2.504402   0.000000
    10  C    1.501171   5.104602   4.620702   2.612388   0.000000
    11  H    2.228327   5.707647   5.535323   3.663193   1.099244
    12  O    2.382676   5.819842   4.859871   2.469594   1.218834
    13  C    2.538568   4.403158   5.376157   4.669592   3.032603
    14  O    2.975428   5.500178   6.186197   5.030314   2.863091
    15  H    3.491468   4.549775   5.936357   5.583189   4.108880
    16  O    3.724666   2.412422   4.472205   5.242621   5.027704
    17  H    3.951051   3.352737   5.287130   5.731252   5.064100
                   11         12         13         14         15
    11  H    0.000000
    12  O    2.017199   0.000000
    13  C    2.737212   4.213253   0.000000
    14  O    2.273006   3.939794   1.220178   0.000000
    15  H    3.748503   5.305401   1.113681   2.000167   0.000000
    16  O    5.198498   6.076842   2.918570   4.113437   2.563854
    17  H    5.044010   6.189696   2.471398   3.605150   1.831029
                   16         17
    16  O    0.000000
    17  H    0.965333   0.000000
 Symmetry turned off by external request.
 Stoichiometry    C8H6O3
 Framework group  C1[X(C8H6O3)]
 Deg. of freedom    45
 Full point group                 C1      NOp   1
 Rotational constants (GHZ):           1.5375185           1.0779429           0.6366684
 Standard basis: 6-31++G(d,p) (6D, 7F)
   245 basis functions,   400 primitive gaussians,   245 cartesian basis functions
    39 alpha electrons       39 beta electrons
       nuclear repulsion energy       562.9764671478 Hartrees.
 NAtoms=   17 NActive=   17 NUniq=   17 SFac= 1.00D+00 NAtFMM=   60 NAOKFM=F Big=F
 Integral buffers will be    131072 words long.
 Raffenetti 2 integral format.
 Two-electron integral symmetry is turned off.
 One-electron integrals computed using PRISM.
 NBasis=   245 RedAO= T EigKep=  2.04D-06  NBF=   245
 NBsUse=   244 1.00D-06 EigRej=  5.48D-07 NBFU=   244
 Initial guess from the checkpoint file:  "C:\Users\Administrator\Desktop\dataset_dft\C8H6O3\C8H6O3.chk"
 B after Tr=    -0.000132    0.000012    0.002234
         Rot=    1.000000    0.000011    0.000081   -0.000004 Ang=   0.01 deg.
 ExpMin= 3.60D-02 ExpMax= 5.48D+03 ExpMxC= 8.25D+02 IAcc=3 IRadAn=         5 AccDes= 0.00D+00
 Harris functional with IExCor=  402 and IRadAn=       5 diagonalized for initial guess.
 HarFok:  IExCor=  402 AccDes= 0.00D+00 IRadAn=         5 IDoV= 1 UseB2=F ITyADJ=14
 ICtDFT=  3500011 ScaDFX=  1.000000  1.000000  1.000000  1.000000
 FoFCou: FMM=F IPFlag=           0 FMFlag=      100000 FMFlg1=           0
         NFxFlg=           0 DoJE=T BraDBF=F KetDBF=T FulRan=T
         wScrn=  0.000000 ICntrl=       500 IOpCl=  0 I1Cent=   200000004 NGrid=           0
         NMat0=    1 NMatS0=      1 NMatT0=    0 NMatD0=    1 NMtDS0=    0 NMtDT0=    0
 Symmetry not used in FoFCou.
 Requested convergence on RMS density matrix=1.00D-08 within 128 cycles.
 Requested convergence on MAX density matrix=1.00D-06.
 Requested convergence on             energy=1.00D-06.
 No special actions if energy rises.
 SCF Done:  E(RB3LYP) =  -534.042269713     A.U. after   13 cycles
            NFock= 13  Conv=0.60D-08     -V/T= 2.0080
 Variable Step   Value    
 -------- ---- -----------
     6       4    1.700754
 ---------------------------------------------------------------------------------------------------
                            Z-MATRIX (ANGSTROMS AND DEGREES)
   CD    Cent   Atom    N1       Length/X        N2       Alpha/Y        N3        Beta/Z          J
 ---------------------------------------------------------------------------------------------------
      1      1  C 
      2      2  C        1   1.416405(     1)
      3      3  C        2   1.401843(     2)      1  120.707(    17)
      4      4  C        3   1.387814(     3)      2  119.979(    18)      1    0.201(    32)      0
      5      5  C        4   1.399832(     4)      3  120.495(    19)      2   -0.482(    33)      0
      6      6  C        5   1.393225(     5)      4  120.358(    20)      3    0.190(    34)      0
      7      7  H        3   0.900000(     6)      2  118.270(    21)      1  179.519(    35)      0
      8      8  H        4   1.085840(     7)      3  119.562(    22)      2  179.722(    36)      0
      9      9  H        5   1.084290(     8)      4  121.250(    23)      3 -178.844(    37)      0
     10     10  C        6   1.501171(     9)      5  116.670(    24)      4 -175.432(    38)      0
     11     11  H       10   1.099244(    10)      6  117.103(    25)      5  156.547(    39)      0
     12     12  O       10   1.218834(    11)      6  121.980(    26)      5  -21.197(    40)      0
     13     13  C        1   1.472578(    12)      2  119.519(    27)      3 -178.107(    41)      0
     14     14  O       13   1.220178(    13)      1  126.195(    28)      2  163.535(    42)      0
     15     15  H       13   1.113681(    14)      1  115.908(    29)      2  -16.954(    43)      0
     16     16  O        2   1.363991(    15)      1  124.490(    30)      6  178.799(    44)      0
     17     17  H       16   0.965333(    16)      2  112.214(    31)      1   -0.873(    45)      0
 ---------------------------------------------------------------------------------------------------
                         Z-Matrix orientation:                         
 ---------------------------------------------------------------------
 Center     Atomic      Atomic             Coordinates (Angstroms)
 Number     Number       Type             X           Y           Z
 ---------------------------------------------------------------------
      1          6           0        0.000000    0.000000    0.000000
      2          6           0        0.000000    0.000000    1.416405
      3          6           0        1.205288    0.000000    2.132257
      4          6           0        2.415384    0.004207    1.452790
      5          6           0        2.444256   -0.001670    0.053268
      6          6           0        1.256849   -0.007847   -0.675499
      7          1           0        1.167030    0.006652    3.031419
      8          1           0        3.344911    0.008756    2.014044
      9          1           0        3.382535   -0.017173   -0.489941
     10          6           0        1.382332   -0.120696   -2.167154
     11          1           0        0.515109   -0.517038   -2.714123
     12          8           0        2.410696    0.171714   -2.752405
     13          6           0       -1.280730    0.042319   -0.725552
     14          8           0       -1.433175    0.326596   -1.902319
     15          1           0       -2.185439   -0.220064   -0.131464
     16          8           0       -1.123825    0.030583    2.188773
     17          1           0       -1.929967    0.066134    1.658925
 ---------------------------------------------------------------------
                    Distance matrix (angstroms):
                    1          2          3          4          5
     1  C    0.000000
     2  C    1.416405   0.000000
     3  C    2.449335   1.401843   0.000000
     4  C    2.818634   2.415662   1.387814   0.000000
     5  C    2.444837   2.798667   2.420174   1.399832   0.000000
     6  C    1.426895   2.440449   2.808240   2.423213   1.393225
     7  H    3.248308   1.992554   0.900000   2.012577   3.240487
     8  H    3.904469   3.397894   2.142905   1.085840   2.157760
     9  H    3.417877   3.882782   3.408317   2.170263   1.084290
    10  C    2.573318   3.842825   4.304747   3.766535   2.464168
    11  H    2.810539   4.194512   4.922507   4.609327   3.412574
    12  O    3.662878   4.818706   5.034126   4.208532   2.811226
    13  C    1.472578   2.496005   3.788027   4.290441   3.805787
    14  O    2.404054   3.629682   4.831766   5.115868   4.355061
    15  H    2.200421   2.687093   4.082877   4.871112   4.638523
    16  O    2.460619   1.363991   2.329999   3.615020   4.158441
    17  H    2.545816   1.946269   3.171473   4.350679   4.660103
                    6          7          8          9         10
     6  C    0.000000
     7  H    3.708034   0.000000
     8  H    3.404985   2.403794   0.000000
     9  H    2.133791   4.160410   2.504402   0.000000
    10  C    1.501171   5.204587   4.620702   2.612388   0.000000
    11  H    2.228327   5.806075   5.535323   3.663193   1.099244
    12  O    2.382676   5.918325   4.859871   2.469594   1.218834
    13  C    2.538568   4.484154   5.376157   4.669592   3.032603
    14  O    2.975428   5.586162   6.186197   5.030314   2.863091
    15  H    3.491468   4.614572   5.936357   5.583189   4.108880
    16  O    3.724666   2.441033   4.472205   5.242621   5.027704
    17  H    3.951051   3.388019   5.287130   5.731252   5.064100
                   11         12         13         14         15
    11  H    0.000000
    12  O    2.017199   0.000000
    13  C    2.737212   4.213253   0.000000
    14  O    2.273006   3.939794   1.220178   0.000000
    15  H    3.748503   5.305401   1.113681   2.000167   0.000000
    16  O    5.198498   6.076842   2.918570   4.113437   2.563854
    17  H    5.044010   6.189696   2.471398   3.605150   1.831029
                   16         17
    16  O    0.000000
    17  H    0.965333   0.000000
 Symmetry turned off by external request.
 Stoichiometry    C8H6O3
 Framework group  C1[X(C8H6O3)]
 Deg. of freedom    45
 Full point group                 C1      NOp   1
 Rotational constants (GHZ):           1.5370320           1.0767569           0.6361718
 Standard basis: 6-31++G(d,p) (6D, 7F)
   245 basis functions,   400 primitive gaussians,   245 cartesian basis functions
    39 alpha electrons       39 beta electrons
       nuclear repulsion energy       562.2433251078 Hartrees.
 NAtoms=   17 NActive=   17 NUniq=   17 SFac= 1.00D+00 NAtFMM=   60 NAOKFM=F Big=F
 Integral buffers will be    131072 words long.
 Raffenetti 2 integral format.
 Two-electron integral symmetry is turned off.
 One-electron integrals computed using PRISM.
 NBasis=   245 RedAO= T EigKep=  2.04D-06  NBF=   245
 NBsUse=   244 1.00D-06 EigRej=  5.43D-07 NBFU=   244
 Initial guess from the checkpoint file:  "C:\Users\Administrator\Desktop\dataset_dft\C8H6O3\C8H6O3.chk"
 B after Tr=    -0.000132    0.000012    0.002234
         Rot=    1.000000    0.000011    0.000081   -0.000004 Ang=   0.01 deg.
 ExpMin= 3.60D-02 ExpMax= 5.48D+03 ExpMxC= 8.25D+02 IAcc=3 IRadAn=         5 AccDes= 0.00D+00
 Harris functional with IExCor=  402 and IRadAn=       5 diagonalized for initial guess.
 HarFok:  IExCor=  402 AccDes= 0.00D+00 IRadAn=         5 IDoV= 1 UseB2=F ITyADJ=14
 ICtDFT=  3500011 ScaDFX=  1.000000  1.000000  1.000000  1.000000
 FoFCou: FMM=F IPFlag=           0 FMFlag=      100000 FMFlg1=           0
         NFxFlg=           0 DoJE=T BraDBF=F KetDBF=T FulRan=T
         wScrn=  0.000000 ICntrl=       500 IOpCl=  0 I1Cent=   200000004 NGrid=           0
         NMat0=    1 NMatS0=      1 NMatT0=    0 NMatD0=    1 NMtDS0=    0 NMtDT0=    0
 Symmetry not used in FoFCou.
 Requested convergence on RMS density matrix=1.00D-08 within 128 cycles.
 Requested convergence on MAX density matrix=1.00D-06.
 Requested convergence on             energy=1.00D-06.
 No special actions if energy rises.
 SCF Done:  E(RB3LYP) =  -534.106597134     A.U. after   12 cycles
            NFock= 12  Conv=0.72D-08     -V/T= 2.0086
 Variable Step   Value    
 -------- ---- -----------
     6       5    1.889726
 ---------------------------------------------------------------------------------------------------
                            Z-MATRIX (ANGSTROMS AND DEGREES)
   CD    Cent   Atom    N1       Length/X        N2       Alpha/Y        N3        Beta/Z          J
 ---------------------------------------------------------------------------------------------------
      1      1  C 
      2      2  C        1   1.416405(     1)
      3      3  C        2   1.401843(     2)      1  120.707(    17)
      4      4  C        3   1.387814(     3)      2  119.979(    18)      1    0.201(    32)      0
      5      5  C        4   1.399832(     4)      3  120.495(    19)      2   -0.482(    33)      0
      6      6  C        5   1.393225(     5)      4  120.358(    20)      3    0.190(    34)      0
      7      7  H        3   1.000000(     6)      2  118.270(    21)      1  179.519(    35)      0
      8      8  H        4   1.085840(     7)      3  119.562(    22)      2  179.722(    36)      0
      9      9  H        5   1.084290(     8)      4  121.250(    23)      3 -178.844(    37)      0
     10     10  C        6   1.501171(     9)      5  116.670(    24)      4 -175.432(    38)      0
     11     11  H       10   1.099244(    10)      6  117.103(    25)      5  156.547(    39)      0
     12     12  O       10   1.218834(    11)      6  121.980(    26)      5  -21.197(    40)      0
     13     13  C        1   1.472578(    12)      2  119.519(    27)      3 -178.107(    41)      0
     14     14  O       13   1.220178(    13)      1  126.195(    28)      2  163.535(    42)      0
     15     15  H       13   1.113681(    14)      1  115.908(    29)      2  -16.954(    43)      0
     16     16  O        2   1.363991(    15)      1  124.490(    30)      6  178.799(    44)      0
     17     17  H       16   0.965333(    16)      2  112.214(    31)      1   -0.873(    45)      0
 ---------------------------------------------------------------------------------------------------
                         Z-Matrix orientation:                         
 ---------------------------------------------------------------------
 Center     Atomic      Atomic             Coordinates (Angstroms)
 Number     Number       Type             X           Y           Z
 ---------------------------------------------------------------------
      1          6           0        0.000000    0.000000    0.000000
      2          6           0        0.000000    0.000000    1.416405
      3          6           0        1.205288    0.000000    2.132257
      4          6           0        2.415384    0.004207    1.452790
      5          6           0        2.444256   -0.001670    0.053268
      6          6           0        1.256849   -0.007847   -0.675499
      7          1           0        1.162779    0.007391    3.131326
      8          1           0        3.344911    0.008756    2.014044
      9          1           0        3.382535   -0.017173   -0.489941
     10          6           0        1.382332   -0.120696   -2.167154
     11          1           0        0.515109   -0.517038   -2.714123
     12          8           0        2.410696    0.171714   -2.752405
     13          6           0       -1.280730    0.042319   -0.725552
     14          8           0       -1.433175    0.326596   -1.902319
     15          1           0       -2.185439   -0.220064   -0.131464
     16          8           0       -1.123825    0.030583    2.188773
     17          1           0       -1.929967    0.066134    1.658925
 ---------------------------------------------------------------------
                    Distance matrix (angstroms):
                    1          2          3          4          5
     1  C    0.000000
     2  C    1.416405   0.000000
     3  C    2.449335   1.401843   0.000000
     4  C    2.818634   2.415662   1.387814   0.000000
     5  C    2.444837   2.798667   2.420174   1.399832   0.000000
     6  C    1.426895   2.440449   2.808240   2.423213   1.393225
     7  H    3.340256   2.071971   1.000000   2.094401   3.334172
     8  H    3.904469   3.397894   2.142905   1.085840   2.157760
     9  H    3.417877   3.882782   3.408317   2.170263   1.084290
    10  C    2.573318   3.842825   4.304747   3.766535   2.464168
    11  H    2.810539   4.194512   4.922507   4.609327   3.412574
    12  O    3.662878   4.818706   5.034126   4.208532   2.811226
    13  C    1.472578   2.496005   3.788027   4.290441   3.805787
    14  O    2.404054   3.629682   4.831766   5.115868   4.355061
    15  H    2.200421   2.687093   4.082877   4.871112   4.638523
    16  O    2.460619   1.363991   2.329999   3.615020   4.158441
    17  H    2.545816   1.946269   3.171473   4.350679   4.660103
                    6          7          8          9         10
     6  C    0.000000
     7  H    3.808017   0.000000
     8  H    3.404985   2.451535   0.000000
     9  H    2.133791   4.247528   2.504402   0.000000
    10  C    1.501171   5.304573   4.620702   2.612388   0.000000
    11  H    2.228327   5.904555   5.535323   3.663193   1.099244
    12  O    2.382676   6.016859   4.859871   2.469594   1.218834
    13  C    2.538568   4.565903   5.376157   4.669592   3.032603
    14  O    2.975428   5.672606   6.186197   5.030314   2.863091
    15  H    3.491468   4.680609   5.936357   5.583189   4.108880
    16  O    3.724666   2.473359   4.472205   5.242621   5.027704
    17  H    3.951051   3.425857   5.287130   5.731252   5.064100
                   11         12         13         14         15
    11  H    0.000000
    12  O    2.017199   0.000000
    13  C    2.737212   4.213253   0.000000
    14  O    2.273006   3.939794   1.220178   0.000000
    15  H    3.748503   5.305401   1.113681   2.000167   0.000000
    16  O    5.198498   6.076842   2.918570   4.113437   2.563854
    17  H    5.044010   6.189696   2.471398   3.605150   1.831029
                   16         17
    16  O    0.000000
    17  H    0.965333   0.000000
 Symmetry turned off by external request.
 Stoichiometry    C8H6O3
 Framework group  C1[X(C8H6O3)]
 Deg. of freedom    45
 Full point group                 C1      NOp   1
 Rotational constants (GHZ):           1.5365404           1.0755302           0.6356601
 Standard basis: 6-31++G(d,p) (6D, 7F)
   245 basis functions,   400 primitive gaussians,   245 cartesian basis functions
    39 alpha electrons       39 beta electrons
       nuclear repulsion energy       561.6090469685 Hartrees.
 NAtoms=   17 NActive=   17 NUniq=   17 SFac= 1.00D+00 NAtFMM=   60 NAOKFM=F Big=F
 Integral buffers will be    131072 words long.
 Raffenetti 2 integral format.
 Two-electron integral symmetry is turned off.
 One-electron integrals computed using PRISM.
 NBasis=   245 RedAO= T EigKep=  2.04D-06  NBF=   245
 NBsUse=   244 1.00D-06 EigRej=  5.39D-07 NBFU=   244
 Initial guess from the checkpoint file:  "C:\Users\Administrator\Desktop\dataset_dft\C8H6O3\C8H6O3.chk"
 B after Tr=    -0.000132    0.000012    0.002235
         Rot=    1.000000    0.000011    0.000081   -0.000004 Ang=   0.01 deg.
 ExpMin= 3.60D-02 ExpMax= 5.48D+03 ExpMxC= 8.25D+02 IAcc=3 IRadAn=         5 AccDes= 0.00D+00
 Harris functional with IExCor=  402 and IRadAn=       5 diagonalized for initial guess.
 HarFok:  IExCor=  402 AccDes= 0.00D+00 IRadAn=         5 IDoV= 1 UseB2=F ITyADJ=14
 ICtDFT=  3500011 ScaDFX=  1.000000  1.000000  1.000000  1.000000
 FoFCou: FMM=F IPFlag=           0 FMFlag=      100000 FMFlg1=           0
         NFxFlg=           0 DoJE=T BraDBF=F KetDBF=T FulRan=T
         wScrn=  0.000000 ICntrl=       500 IOpCl=  0 I1Cent=   200000004 NGrid=           0
         NMat0=    1 NMatS0=      1 NMatT0=    0 NMatD0=    1 NMtDS0=    0 NMtDT0=    0
 Symmetry not used in FoFCou.
 Requested convergence on RMS density matrix=1.00D-08 within 128 cycles.
 Requested convergence on MAX density matrix=1.00D-06.
 Requested convergence on             energy=1.00D-06.
 No special actions if energy rises.
 SCF Done:  E(RB3LYP) =  -534.133499119     A.U. after   12 cycles
            NFock= 12  Conv=0.95D-08     -V/T= 2.0091
 Variable Step   Value    
 -------- ---- -----------
     6       6    2.078699
 ---------------------------------------------------------------------------------------------------
                            Z-MATRIX (ANGSTROMS AND DEGREES)
   CD    Cent   Atom    N1       Length/X        N2       Alpha/Y        N3        Beta/Z          J
 ---------------------------------------------------------------------------------------------------
      1      1  C 
      2      2  C        1   1.416405(     1)
      3      3  C        2   1.401843(     2)      1  120.707(    17)
      4      4  C        3   1.387814(     3)      2  119.979(    18)      1    0.201(    32)      0
      5      5  C        4   1.399832(     4)      3  120.495(    19)      2   -0.482(    33)      0
      6      6  C        5   1.393225(     5)      4  120.358(    20)      3    0.190(    34)      0
      7      7  H        3   1.100000(     6)      2  118.270(    21)      1  179.519(    35)      0
      8      8  H        4   1.085840(     7)      3  119.562(    22)      2  179.722(    36)      0
      9      9  H        5   1.084290(     8)      4  121.250(    23)      3 -178.844(    37)      0
     10     10  C        6   1.501171(     9)      5  116.670(    24)      4 -175.432(    38)      0
     11     11  H       10   1.099244(    10)      6  117.103(    25)      5  156.547(    39)      0
     12     12  O       10   1.218834(    11)      6  121.980(    26)      5  -21.197(    40)      0
     13     13  C        1   1.472578(    12)      2  119.519(    27)      3 -178.107(    41)      0
     14     14  O       13   1.220178(    13)      1  126.195(    28)      2  163.535(    42)      0
     15     15  H       13   1.113681(    14)      1  115.908(    29)      2  -16.954(    43)      0
     16     16  O        2   1.363991(    15)      1  124.490(    30)      6  178.799(    44)      0
     17     17  H       16   0.965333(    16)      2  112.214(    31)      1   -0.873(    45)      0
 ---------------------------------------------------------------------------------------------------
                         Z-Matrix orientation:                         
 ---------------------------------------------------------------------
 Center     Atomic      Atomic             Coordinates (Angstroms)
 Number     Number       Type             X           Y           Z
 ---------------------------------------------------------------------
      1          6           0        0.000000    0.000000    0.000000
      2          6           0        0.000000    0.000000    1.416405
      3          6           0        1.205288    0.000000    2.132257
      4          6           0        2.415384    0.004207    1.452790
      5          6           0        2.444256   -0.001670    0.053268
      6          6           0        1.256849   -0.007847   -0.675499
      7          1           0        1.158529    0.008130    3.231233
      8          1           0        3.344911    0.008756    2.014044
      9          1           0        3.382535   -0.017173   -0.489941
     10          6           0        1.382332   -0.120696   -2.167154
     11          1           0        0.515109   -0.517038   -2.714123
     12          8           0        2.410696    0.171714   -2.752405
     13          6           0       -1.280730    0.042319   -0.725552
     14          8           0       -1.433175    0.326596   -1.902319
     15          1           0       -2.185439   -0.220064   -0.131464
     16          8           0       -1.123825    0.030583    2.188773
     17          1           0       -1.929967    0.066134    1.658925
 ---------------------------------------------------------------------
                    Distance matrix (angstroms):
                    1          2          3          4          5
     1  C    0.000000
     2  C    1.416405   0.000000
     3  C    2.449335   1.401843   0.000000
     4  C    2.818634   2.415662   1.387814   0.000000
     5  C    2.444837   2.798667   2.420174   1.399832   0.000000
     6  C    1.426895   2.440449   2.808240   2.423213   1.393225
     7  H    3.432655   2.153103   1.100000   2.177742   3.428214
     8  H    3.904469   3.397894   2.142905   1.085840   2.157760
     9  H    3.417877   3.882782   3.408317   2.170263   1.084290
    10  C    2.573318   3.842825   4.304747   3.766535   2.464168
    11  H    2.810539   4.194512   4.922507   4.609327   3.412574
    12  O    3.662878   4.818706   5.034126   4.208532   2.811226
    13  C    1.472578   2.496005   3.788027   4.290441   3.805787
    14  O    2.404054   3.629682   4.831766   5.115868   4.355061
    15  H    2.200421   2.687093   4.082877   4.871112   4.638523
    16  O    2.460619   1.363991   2.329999   3.615020   4.158441
    17  H    2.545816   1.946269   3.171473   4.350679   4.660103
                    6          7          8          9         10
     6  C    0.000000
     7  H    3.908001   0.000000
     8  H    3.404985   2.502363   0.000000
     9  H    2.133791   4.335203   2.504402   0.000000
    10  C    1.501171   5.404559   4.620702   2.612388   0.000000
    11  H    2.228327   6.003086   5.535323   3.663193   1.099244
    12  O    2.382676   6.115440   4.859871   2.469594   1.218834
    13  C    2.538568   4.648365   5.376157   4.669592   3.032603
    14  O    2.975428   5.759488   6.186197   5.030314   2.863091
    15  H    3.491468   4.747833   5.936357   5.583189   4.108880
    16  O    3.724666   2.509256   4.472205   5.242621   5.027704
    17  H    3.951051   3.466168   5.287130   5.731252   5.064100
                   11         12         13         14         15
    11  H    0.000000
    12  O    2.017199   0.000000
    13  C    2.737212   4.213253   0.000000
    14  O    2.273006   3.939794   1.220178   0.000000
    15  H    3.748503   5.305401   1.113681   2.000167   0.000000
    16  O    5.198498   6.076842   2.918570   4.113437   2.563854
    17  H    5.044010   6.189696   2.471398   3.605150   1.831029
                   16         17
    16  O    0.000000
    17  H    0.965333   0.000000
 Symmetry turned off by external request.
 Stoichiometry    C8H6O3
 Framework group  C1[X(C8H6O3)]
 Deg. of freedom    45
 Full point group                 C1      NOp   1
 Rotational constants (GHZ):           1.5360440           1.0742631           0.6351331
 Standard basis: 6-31++G(d,p) (6D, 7F)
   245 basis functions,   400 primitive gaussians,   245 cartesian basis functions
    39 alpha electrons       39 beta electrons
       nuclear repulsion energy       561.0493373118 Hartrees.
 NAtoms=   17 NActive=   17 NUniq=   17 SFac= 1.00D+00 NAtFMM=   60 NAOKFM=F Big=F
 Integral buffers will be    131072 words long.
 Raffenetti 2 integral format.
 Two-electron integral symmetry is turned off.
 One-electron integrals computed using PRISM.
 NBasis=   245 RedAO= T EigKep=  2.04D-06  NBF=   245
 NBsUse=   244 1.00D-06 EigRej=  5.38D-07 NBFU=   244
 Initial guess from the checkpoint file:  "C:\Users\Administrator\Desktop\dataset_dft\C8H6O3\C8H6O3.chk"
 B after Tr=    -0.000131    0.000012    0.002235
         Rot=    1.000000    0.000011    0.000081   -0.000004 Ang=   0.01 deg.
 ExpMin= 3.60D-02 ExpMax= 5.48D+03 ExpMxC= 8.25D+02 IAcc=3 IRadAn=         5 AccDes= 0.00D+00
 Harris functional with IExCor=  402 and IRadAn=       5 diagonalized for initial guess.
 HarFok:  IExCor=  402 AccDes= 0.00D+00 IRadAn=         5 IDoV= 1 UseB2=F ITyADJ=14
 ICtDFT=  3500011 ScaDFX=  1.000000  1.000000  1.000000  1.000000
 FoFCou: FMM=F IPFlag=           0 FMFlag=      100000 FMFlg1=           0
         NFxFlg=           0 DoJE=T BraDBF=F KetDBF=T FulRan=T
         wScrn=  0.000000 ICntrl=       500 IOpCl=  0 I1Cent=   200000004 NGrid=           0
         NMat0=    1 NMatS0=      1 NMatT0=    0 NMatD0=    1 NMtDS0=    0 NMtDT0=    0
 Symmetry not used in FoFCou.
 Requested convergence on RMS density matrix=1.00D-08 within 128 cycles.
 Requested convergence on MAX density matrix=1.00D-06.
 Requested convergence on             energy=1.00D-06.
 No special actions if energy rises.
 SCF Done:  E(RB3LYP) =  -534.138875454     A.U. after   12 cycles
            NFock= 12  Conv=0.87D-08     -V/T= 2.0094
 Variable Step   Value    
 -------- ---- -----------
     6       7    2.267671
 ---------------------------------------------------------------------------------------------------
                            Z-MATRIX (ANGSTROMS AND DEGREES)
   CD    Cent   Atom    N1       Length/X        N2       Alpha/Y        N3        Beta/Z          J
 ---------------------------------------------------------------------------------------------------
      1      1  C 
      2      2  C        1   1.416405(     1)
      3      3  C        2   1.401843(     2)      1  120.707(    17)
      4      4  C        3   1.387814(     3)      2  119.979(    18)      1    0.201(    32)      0
      5      5  C        4   1.399832(     4)      3  120.495(    19)      2   -0.482(    33)      0
      6      6  C        5   1.393225(     5)      4  120.358(    20)      3    0.190(    34)      0
      7      7  H        3   1.200000(     6)      2  118.270(    21)      1  179.519(    35)      0
      8      8  H        4   1.085840(     7)      3  119.562(    22)      2  179.722(    36)      0
      9      9  H        5   1.084290(     8)      4  121.250(    23)      3 -178.844(    37)      0
     10     10  C        6   1.501171(     9)      5  116.670(    24)      4 -175.432(    38)      0
     11     11  H       10   1.099244(    10)      6  117.103(    25)      5  156.547(    39)      0
     12     12  O       10   1.218834(    11)      6  121.980(    26)      5  -21.197(    40)      0
     13     13  C        1   1.472578(    12)      2  119.519(    27)      3 -178.107(    41)      0
     14     14  O       13   1.220178(    13)      1  126.195(    28)      2  163.535(    42)      0
     15     15  H       13   1.113681(    14)      1  115.908(    29)      2  -16.954(    43)      0
     16     16  O        2   1.363991(    15)      1  124.490(    30)      6  178.799(    44)      0
     17     17  H       16   0.965333(    16)      2  112.214(    31)      1   -0.873(    45)      0
 ---------------------------------------------------------------------------------------------------
                         Z-Matrix orientation:                         
 ---------------------------------------------------------------------
 Center     Atomic      Atomic             Coordinates (Angstroms)
 Number     Number       Type             X           Y           Z
 ---------------------------------------------------------------------
      1          6           0        0.000000    0.000000    0.000000
      2          6           0        0.000000    0.000000    1.416405
      3          6           0        1.205288    0.000000    2.132257
      4          6           0        2.415384    0.004207    1.452790
      5          6           0        2.444256   -0.001670    0.053268
      6          6           0        1.256849   -0.007847   -0.675499
      7          1           0        1.154278    0.008869    3.331140
      8          1           0        3.344911    0.008756    2.014044
      9          1           0        3.382535   -0.017173   -0.489941
     10          6           0        1.382332   -0.120696   -2.167154
     11          1           0        0.515109   -0.517038   -2.714123
     12          8           0        2.410696    0.171714   -2.752405
     13          6           0       -1.280730    0.042319   -0.725552
     14          8           0       -1.433175    0.326596   -1.902319
     15          1           0       -2.185439   -0.220064   -0.131464
     16          8           0       -1.123825    0.030583    2.188773
     17          1           0       -1.929967    0.066134    1.658925
 ---------------------------------------------------------------------
                    Distance matrix (angstroms):
                    1          2          3          4          5
     1  C    0.000000
     2  C    1.416405   0.000000
     3  C    2.449335   1.401843   0.000000
     4  C    2.818634   2.415662   1.387814   0.000000
     5  C    2.444837   2.798667   2.420174   1.399832   0.000000
     6  C    1.426895   2.440449   2.808240   2.423213   1.393225
     7  H    3.525468   2.235765   1.200000   2.262435   3.522584
     8  H    3.904469   3.397894   2.142905   1.085840   2.157760
[...]
         wScrn=  0.000000 ICntrl=       500 IOpCl=  0 I1Cent=   200000004 NGrid=           0
         NMat0=    1 NMatS0=      1 NMatT0=    0 NMatD0=    1 NMtDS0=    0 NMtDT0=    0
 Symmetry not used in FoFCou.
 Requested convergence on RMS density matrix=1.00D-08 within 128 cycles.
 Requested convergence on MAX density matrix=1.00D-06.
 Requested convergence on             energy=1.00D-06.
 No special actions if energy rises.
 SCF Done:  E(RB3LYP) =  -533.960455861     A.U. after   12 cycles
            NFock= 12  Conv=0.43D-08     -V/T= 2.0099
 Variable Step   Value    
 -------- ---- -----------
     6      19    4.535343
 ---------------------------------------------------------------------------------------------------
                            Z-MATRIX (ANGSTROMS AND DEGREES)
   CD    Cent   Atom    N1       Length/X        N2       Alpha/Y        N3        Beta/Z          J
 ---------------------------------------------------------------------------------------------------
      1      1  C 
      2      2  C        1   1.416405(     1)
      3      3  C        2   1.401843(     2)      1  120.707(    17)
      4      4  C        3   1.387814(     3)      2  119.979(    18)      1    0.201(    32)      0
      5      5  C        4   1.399832(     4)      3  120.495(    19)      2   -0.482(    33)      0
      6      6  C        5   1.393225(     5)      4  120.358(    20)      3    0.190(    34)      0
      7      7  H        3   2.400000(     6)      2  118.270(    21)      1  179.519(    35)      0
      8      8  H        4   1.085840(     7)      3  119.562(    22)      2  179.722(    36)      0
      9      9  H        5   1.084290(     8)      4  121.250(    23)      3 -178.844(    37)      0
     10     10  C        6   1.501171(     9)      5  116.670(    24)      4 -175.432(    38)      0
     11     11  H       10   1.099244(    10)      6  117.103(    25)      5  156.547(    39)      0
     12     12  O       10   1.218834(    11)      6  121.980(    26)      5  -21.197(    40)      0
     13     13  C        1   1.472578(    12)      2  119.519(    27)      3 -178.107(    41)      0
     14     14  O       13   1.220178(    13)      1  126.195(    28)      2  163.535(    42)      0
     15     15  H       13   1.113681(    14)      1  115.908(    29)      2  -16.954(    43)      0
     16     16  O        2   1.363991(    15)      1  124.490(    30)      6  178.799(    44)      0
     17     17  H       16   0.965333(    16)      2  112.214(    31)      1   -0.873(    45)      0
 ---------------------------------------------------------------------------------------------------
                         Z-Matrix orientation:                         
 ---------------------------------------------------------------------
 Center     Atomic      Atomic             Coordinates (Angstroms)
 Number     Number       Type             X           Y           Z
 ---------------------------------------------------------------------
      1          6           0        0.000000    0.000000    0.000000
      2          6           0        0.000000    0.000000    1.416405
      3          6           0        1.205288    0.000000    2.132257
      4          6           0        2.415384    0.004207    1.452790
      5          6           0        2.444256   -0.001670    0.053268
      6          6           0        1.256849   -0.007847   -0.675499
      7          1           0        1.103268    0.017739    4.530022
      8          1           0        3.344911    0.008756    2.014044
      9          1           0        3.382535   -0.017173   -0.489941
     10          6           0        1.382332   -0.120696   -2.167154
     11          1           0        0.515109   -0.517038   -2.714123
     12          8           0        2.410696    0.171714   -2.752405
     13          6           0       -1.280730    0.042319   -0.725552
     14          8           0       -1.433175    0.326596   -1.902319
     15          1           0       -2.185439   -0.220064   -0.131464
     16          8           0       -1.123825    0.030583    2.188773
     17          1           0       -1.929967    0.066134    1.658925
 ---------------------------------------------------------------------
                    Distance matrix (angstroms):
                    1          2          3          4          5
     1  C    0.000000
     2  C    1.416405   0.000000
     3  C    2.449335   1.401843   0.000000
     4  C    2.818634   2.415662   1.387814   0.000000
     5  C    2.444837   2.798667   2.420174   1.399832   0.000000
     6  C    1.426895   2.440449   2.808240   2.423213   1.393225
     7  H    4.662469   3.303350   2.400000   3.345324   4.673324
     8  H    3.904469   3.397894   2.142905   1.085840   2.157760
     9  H    3.417877   3.882782   3.408317   2.170263   1.084290
    10  C    2.573318   3.842825   4.304747   3.766535   2.464168
    11  H    2.810539   4.194512   4.922507   4.609327   3.412574
    12  O    3.662878   4.818706   5.034126   4.208532   2.811226
    13  C    1.472578   2.496005   3.788027   4.290441   3.805787
    14  O    2.404054   3.629682   4.831766   5.115868   4.355061
    15  H    2.200421   2.687093   4.082877   4.871112   4.638523
    16  O    2.460619   1.363991   2.329999   3.615020   4.158441
    17  H    2.545816   1.946269   3.171473   4.350679   4.660103
                    6          7          8          9         10
     6  C    0.000000
     7  H    5.207849   0.000000
     8  H    3.404985   3.369747   0.000000
     9  H    2.133791   5.513285   2.504402   0.000000
    10  C    1.501171   6.704417   4.620702   2.612388   0.000000
    11  H    2.228327   7.287630   5.535323   3.663193   1.099244
    12  O    2.382676   7.400461   4.859871   2.469594   1.218834
    13  C    2.538568   5.771058   5.376157   4.669592   3.032603
    14  O    2.975428   6.921268   6.186197   5.030314   2.863091
    15  H    3.491468   5.709780   5.936357   5.583189   4.108880
    16  O    3.724666   3.231339   4.472205   5.242621   5.027704
    17  H    3.951051   4.176847   5.287130   5.731252   5.064100
                   11         12         13         14         15
    11  H    0.000000
    12  O    2.017199   0.000000
    13  C    2.737212   4.213253   0.000000
    14  O    2.273006   3.939794   1.220178   0.000000
    15  H    3.748503   5.305401   1.113681   2.000167   0.000000
    16  O    5.198498   6.076842   2.918570   4.113437   2.563854
    17  H    5.044010   6.189696   2.471398   3.605150   1.831029
                   16         17
    16  O    0.000000
    17  H    0.965333   0.000000
 Symmetry turned off by external request.
 Stoichiometry    C8H6O3
 Framework group  C1[X(C8H6O3)]
 Deg. of freedom    45
 Full point group                 C1      NOp   1
 Rotational constants (GHZ):           1.5292728           1.0541981           0.6269429
 Standard basis: 6-31++G(d,p) (6D, 7F)
   245 basis functions,   400 primitive gaussians,   245 cartesian basis functions
    39 alpha electrons       39 beta electrons
       nuclear repulsion energy       556.7618294376 Hartrees.
 NAtoms=   17 NActive=   17 NUniq=   17 SFac= 1.00D+00 NAtFMM=   60 NAOKFM=F Big=F
 Integral buffers will be    131072 words long.
 Raffenetti 2 integral format.
 Two-electron integral symmetry is turned off.
 One-electron integrals computed using PRISM.
 NBasis=   245 RedAO= T EigKep=  2.02D-06  NBF=   245
 NBsUse=   244 1.00D-06 EigRej=  5.80D-07 NBFU=   244
 Initial guess from the checkpoint file:  "C:\Users\Administrator\Desktop\dataset_dft\C8H6O3\C8H6O3.chk"
 B after Tr=    -0.000126    0.000012    0.002240
         Rot=    1.000000    0.000010    0.000079   -0.000004 Ang=   0.01 deg.
 ExpMin= 3.60D-02 ExpMax= 5.48D+03 ExpMxC= 8.25D+02 IAcc=3 IRadAn=         5 AccDes= 0.00D+00
 Harris functional with IExCor=  402 and IRadAn=       5 diagonalized for initial guess.
 HarFok:  IExCor=  402 AccDes= 0.00D+00 IRadAn=         5 IDoV= 1 UseB2=F ITyADJ=14
 ICtDFT=  3500011 ScaDFX=  1.000000  1.000000  1.000000  1.000000
 FoFCou: FMM=F IPFlag=           0 FMFlag=      100000 FMFlg1=           0
         NFxFlg=           0 DoJE=T BraDBF=F KetDBF=T FulRan=T
         wScrn=  0.000000 ICntrl=       500 IOpCl=  0 I1Cent=   200000004 NGrid=           0
         NMat0=    1 NMatS0=      1 NMatT0=    0 NMatD0=    1 NMtDS0=    0 NMtDT0=    0
 Symmetry not used in FoFCou.
 Requested convergence on RMS density matrix=1.00D-08 within 128 cycles.
 Requested convergence on MAX density matrix=1.00D-06.
 Requested convergence on             energy=1.00D-06.
 No special actions if energy rises.
 SCF Done:  E(RB3LYP) =  -533.950109361     A.U. after   12 cycles
            NFock= 12  Conv=0.42D-08     -V/T= 2.0099
 Variable Step   Value    
 -------- ---- -----------
     6      20    4.724315
 ---------------------------------------------------------------------------------------------------
                            Z-MATRIX (ANGSTROMS AND DEGREES)
   CD    Cent   Atom    N1       Length/X        N2       Alpha/Y        N3        Beta/Z          J
 ---------------------------------------------------------------------------------------------------
      1      1  C 
      2      2  C        1   1.416405(     1)
      3      3  C        2   1.401843(     2)      1  120.707(    17)
      4      4  C        3   1.387814(     3)      2  119.979(    18)      1    0.201(    32)      0
      5      5  C        4   1.399832(     4)      3  120.495(    19)      2   -0.482(    33)      0
      6      6  C        5   1.393225(     5)      4  120.358(    20)      3    0.190(    34)      0
      7      7  H        3   2.500000(     6)      2  118.270(    21)      1  179.519(    35)      0
      8      8  H        4   1.085840(     7)      3  119.562(    22)      2  179.722(    36)      0
      9      9  H        5   1.084290(     8)      4  121.250(    23)      3 -178.844(    37)      0
     10     10  C        6   1.501171(     9)      5  116.670(    24)      4 -175.432(    38)      0
     11     11  H       10   1.099244(    10)      6  117.103(    25)      5  156.547(    39)      0
     12     12  O       10   1.218834(    11)      6  121.980(    26)      5  -21.197(    40)      0
     13     13  C        1   1.472578(    12)      2  119.519(    27)      3 -178.107(    41)      0
     14     14  O       13   1.220178(    13)      1  126.195(    28)      2  163.535(    42)      0
     15     15  H       13   1.113681(    14)      1  115.908(    29)      2  -16.954(    43)      0
     16     16  O        2   1.363991(    15)      1  124.490(    30)      6  178.799(    44)      0
     17     17  H       16   0.965333(    16)      2  112.214(    31)      1   -0.873(    45)      0
 ---------------------------------------------------------------------------------------------------
                         Z-Matrix orientation:                         
 ---------------------------------------------------------------------
 Center     Atomic      Atomic             Coordinates (Angstroms)
 Number     Number       Type             X           Y           Z
 ---------------------------------------------------------------------
      1          6           0        0.000000    0.000000    0.000000
      2          6           0        0.000000    0.000000    1.416405
      3          6           0        1.205288    0.000000    2.132257
      4          6           0        2.415384    0.004207    1.452790
      5          6           0        2.444256   -0.001670    0.053268
      6          6           0        1.256849   -0.007847   -0.675499
      7          1           0        1.099017    0.018478    4.629929
      8          1           0        3.344911    0.008756    2.014044
      9          1           0        3.382535   -0.017173   -0.489941
     10          6           0        1.382332   -0.120696   -2.167154
     11          1           0        0.515109   -0.517038   -2.714123
     12          8           0        2.410696    0.171714   -2.752405
     13          6           0       -1.280730    0.042319   -0.725552
     14          8           0       -1.433175    0.326596   -1.902319
     15          1           0       -2.185439   -0.220064   -0.131464
     16          8           0       -1.123825    0.030583    2.188773
     17          1           0       -1.929967    0.066134    1.658925
 ---------------------------------------------------------------------
                    Distance matrix (angstroms):
                    1          2          3          4          5
     1  C    0.000000
     2  C    1.416405   0.000000
     3  C    2.449335   1.401843   0.000000
     4  C    2.818634   2.415662   1.387814   0.000000
     5  C    2.444837   2.798667   2.420174   1.399832   0.000000
     6  C    1.426895   2.440449   2.808240   2.423213   1.393225
     7  H    4.758616   3.396309   2.500000   3.439076   4.770315
     8  H    3.904469   3.397894   2.142905   1.085840   2.157760
     9  H    3.417877   3.882782   3.408317   2.170263   1.084290
    10  C    2.573318   3.842825   4.304747   3.766535   2.464168
    11  H    2.810539   4.194512   4.922507   4.609327   3.412574
    12  O    3.662878   4.818706   5.034126   4.208532   2.811226
    13  C    1.472578   2.496005   3.788027   4.290441   3.805787
    14  O    2.404054   3.629682   4.831766   5.115868   4.355061
    15  H    2.200421   2.687093   4.082877   4.871112   4.638523
    16  O    2.460619   1.363991   2.329999   3.615020   4.158441
    17  H    2.545816   1.946269   3.171473   4.350679   4.660103
                    6          7          8          9         10
     6  C    0.000000
     7  H    5.307840   0.000000
     8  H    3.404985   3.447752   0.000000
     9  H    2.133791   5.606140   2.504402   0.000000
    10  C    1.501171   6.804408   4.620702   2.612388   0.000000
    11  H    2.228327   7.386665   5.535323   3.663193   1.099244
    12  O    2.382676   7.499523   4.859871   2.469594   1.218834
    13  C    2.538568   5.860456   5.376157   4.669592   3.032603
    14  O    2.975428   7.012646   6.186197   5.030314   2.863091
    15  H    3.491468   5.789250   5.936357   5.583189   4.108880
    16  O    3.724666   3.301577   4.472205   5.242621   5.027704
    17  H    3.951051   4.243098   5.287130   5.731252   5.064100
                   11         12         13         14         15
    11  H    0.000000
    12  O    2.017199   0.000000
    13  C    2.737212   4.213253   0.000000
    14  O    2.273006   3.939794   1.220178   0.000000
    15  H    3.748503   5.305401   1.113681   2.000167   0.000000
    16  O    5.198498   6.076842   2.918570   4.113437   2.563854
    17  H    5.044010   6.189696   2.471398   3.605150   1.831029
                   16         17
    16  O    0.000000
    17  H    0.965333   0.000000
 Symmetry turned off by external request.
 Stoichiometry    C8H6O3
 Framework group  C1[X(C8H6O3)]
 Deg. of freedom    45
 Full point group                 C1      NOp   1
 Rotational constants (GHZ):           1.5287365           1.0523866           0.6262129
 Standard basis: 6-31++G(d,p) (6D, 7F)
   245 basis functions,   400 primitive gaussians,   245 cartesian basis functions
    39 alpha electrons       39 beta electrons
       nuclear repulsion energy       556.5495566836 Hartrees.
 NAtoms=   17 NActive=   17 NUniq=   17 SFac= 1.00D+00 NAtFMM=   60 NAOKFM=F Big=F
 Integral buffers will be    131072 words long.
 Raffenetti 2 integral format.
 Two-electron integral symmetry is turned off.
 One-electron integrals computed using PRISM.
 NBasis=   245 RedAO= T EigKep=  2.02D-06  NBF=   245
 NBsUse=   244 1.00D-06 EigRej=  5.82D-07 NBFU=   244
 Initial guess from the checkpoint file:  "C:\Users\Administrator\Desktop\dataset_dft\C8H6O3\C8H6O3.chk"
 B after Tr=    -0.000125    0.000012    0.002240
         Rot=    1.000000    0.000010    0.000079   -0.000004 Ang=   0.01 deg.
 ExpMin= 3.60D-02 ExpMax= 5.48D+03 ExpMxC= 8.25D+02 IAcc=3 IRadAn=         5 AccDes= 0.00D+00
 Harris functional with IExCor=  402 and IRadAn=       5 diagonalized for initial guess.
 HarFok:  IExCor=  402 AccDes= 0.00D+00 IRadAn=         5 IDoV= 1 UseB2=F ITyADJ=14
 ICtDFT=  3500011 ScaDFX=  1.000000  1.000000  1.000000  1.000000
 FoFCou: FMM=F IPFlag=           0 FMFlag=      100000 FMFlg1=           0
         NFxFlg=           0 DoJE=T BraDBF=F KetDBF=T FulRan=T
         wScrn=  0.000000 ICntrl=       500 IOpCl=  0 I1Cent=   200000004 NGrid=           0
         NMat0=    1 NMatS0=      1 NMatT0=    0 NMatD0=    1 NMtDS0=    0 NMtDT0=    0
 Symmetry not used in FoFCou.
 Requested convergence on RMS density matrix=1.00D-08 within 128 cycles.
 Requested convergence on MAX density matrix=1.00D-06.
 Requested convergence on             energy=1.00D-06.
 No special actions if energy rises.
 SCF Done:  E(RB3LYP) =  -533.940751019     A.U. after   12 cycles
            NFock= 12  Conv=0.44D-08     -V/T= 2.0098
 Scan completed.
 
 Summary of the potential surface scan:
   N      B6          SCF    
 ----  ---------  -----------
    1     0.5000   -533.20966
    2     0.6000   -533.66713
    3     0.7000   -533.91267
    4     0.8000   -534.04227
    5     0.9000   -534.10660
    6     1.0000   -534.13350
    7     1.1000   -534.13888
    8     1.2000   -534.13204
    9     1.3000   -534.11851
   10     1.4000   -534.10158
   11     1.5000   -534.08320
   12     1.6000   -534.06459
   13     1.7000   -534.04645
   14     1.8000   -534.02921
   15     1.9000   -534.01307
   16     2.0000   -533.99813
   17     2.1000   -533.98440
   18     2.2000   -533.97187
   19     2.3000   -533.96046
   20     2.4000   -533.95011
   21     2.5000   -533.94075
 ----  ---------  -----------
  
 1|1|UNPC-BF-202112021916|Scan|RB3LYP|6-31++G(d,p)|C8H6O3|ADMINISTRATOR
 |21-Mar-2023|1||# scan b3lyp/6-31++g(d,p) nosymm||Title Card Required|
 |0,1|C|C,1,B1|C,2,B2,1,A1|C,3,B3,2,A2,1,D1,0|C,4,B4,3,A3,2,D2,0|C,5,B5
 ,4,A4,3,D3,0|H,3,B6,2,A5,1,D4,0|H,4,B7,3,A6,2,D5,0|H,5,B8,4,A7,3,D6,0|
 C,6,B9,5,A8,4,D7,0|H,10,B10,6,A9,5,D8,0|O,10,B11,6,A10,5,D9,0|C,1,B12,
 2,A11,3,D10,0|O,13,B13,1,A12,2,D11,0|H,13,B14,1,A13,2,D12,0|O,2,B15,1,
 A14,6,D13,0|H,16,B16,2,A15,1,D14,0||B1=1.41640543|B2=1.40184266|B3=1.3
 8781378|B4=1.39983165|B5=1.39322488|B6=0.5,s,20,0.1|B7=1.08583956|B8=1
 .08428977|B9=1.50117117|B10=1.09924387|B11=1.21883362|B12=1.47257773|B
 13=1.22017785|B14=1.11368052|B15=1.36399058|B16=0.96533297|A1=120.7071
 7149|A2=119.97851826|A3=120.49469346|A4=120.35813845|A5=118.26996991|A
 6=119.56241157|A7=121.25035101|A8=116.67023011|A9=117.10293634|A10=121
 .97992104|A11=119.51879521|A12=126.19501193|A13=115.90757059|A14=124.4
 8955885|A15=112.21443445|D1=0.20052181|D2=-0.4816753|D3=0.18978724|D4=
 179.51915901|D5=179.72238218|D6=-178.84449407|D7=-175.4323131|D8=156.5
 4726604|D9=-21.1966001|D10=-178.10748664|D11=163.53528247|D12=-16.9540
 9935|D13=178.79889123|D14=-0.8725374||Version=EM64W-G16RevA.03|HF=-533
 .2096557,-533.6671263,-533.9126693,-534.0422697,-534.1065971,-534.1334
 991,-534.1388755,-534.132042,-534.1185142,-534.1015771,-534.0832041,-5
 34.0645899,-534.0464524,-534.029206,-534.0130679,-533.9981292,-533.984
 4048,-533.9718651,-533.9604559,-533.9501094,-533.940751|RMSD=8.267e-00
 9,2.708e-009,7.294e-009,6.014e-009,7.158e-009,9.527e-009,8.685e-009,7.
 453e-009,6.506e-009,5.892e-009,5.579e-009,5.484e-009,5.699e-009,6.005e
 -009,6.012e-009,5.660e-009,5.102e-009,4.610e-009,4.320e-009,4.237e-009
 ,4.379e-009|PG=C01 [X(C8H6O3)]||@


 I DO NOT DEFINE TIME, SPACE, PLACE, AND MOTION, AS BEING WELL KNOWN TO ALL.
                                            -- NEWTON (1642-1726), PRINCIPIA
 Job cpu time:       0 days  0 hours 12 minutes 40.0 seconds.
 Elapsed time:       0 days  0 hours 12 minutes 17.0 seconds.
 File lengths (MBytes):  RWF=     42 Int=      0 D2E=      0 Chk=      7 Scr=      1
 Normal termination of Gaussian 16 at Tue Mar 21 17:54:50 2023.
