 Entering Link 1 = I:\G16W\l1.exe PID=     12048.
  
 Copyright (c) 1988,1990,1992,1993,1995,1998,2003,2009,2016,
            Gaussian, Inc.  All Rights Reserved.
  
 This is part of the Gaussian(R) 16 program.  It is based on
 the Gaussian(R) 09 system (copyright 2009, Gaussian, Inc.),
 the Gaussian(R) 03 system (copyright 2003, Gaussian, Inc.),
 the Gaussian(R) 98 system (copyright 1998, Gaussian, Inc.),
 the Gaussian(R) 94 system (copyright 1995, Gaussian, Inc.),
 the Gaussian 92(TM) system (copyright 1992, Gaussian, Inc.),
 the Gaussian 90(TM) system (copyright 1990, Gaussian, Inc.),
 the Gaussian 88(TM) system (copyright 1988, Gaussian, Inc.),
 the Gaussian 86(TM) system (copyright 1986, Carnegie Mellon
 University), and the Gaussian 82(TM) system (copyright 1983,
 Carnegie Mellon University). Gaussian is a federally registered
 trademark of Gaussian, Inc.
  
 This software contains proprietary and confidential information,
 including trade secrets, belonging to Gaussian, Inc.
  
 This software is provided under written license and may be
 used, copied, transmitted, or stored only in accord with that
 written license.
  
 The following legend is applicable only to US Government
 contracts under FAR:
  
                    RESTRICTED RIGHTS LEGEND
  
 Use, reproduction and disclosure by the US Government is
 subject to restrictions as set forth in subparagraphs (a)
 and (c) of the Commercial Computer Software - Restricted
 Rights clause in FAR 52.227-19.
  
 Gaussian, Inc.
 340 Quinnipiac St., Bldg. 40, Wallingford CT 06492
  
  
 ---------------------------------------------------------------
 Warning -- This program may not be used in any manner that
 competes with the business of Gaussian, Inc. or will provide
 assistance to any competitor of Gaussian, Inc.  The licensee
 of this program is prohibited from giving any competitor of
 Gaussian, Inc. access to this program.  By using this program,
 the user acknowledges that Gaussian, Inc. is engaged in the
 business of creating and licensing software in the field of
 computational chemistry and represents and warrants to the
 licensee that it is not a competitor of Gaussian, Inc. and that
 it will not use this program in any manner prohibited above.
 ---------------------------------------------------------------
  

 Cite this work as:
 Gaussian 16, Revision A.03,
 M. J. Frisch, G. W. Trucks, H. B. Schlegel, G. E. Scuseria, 
 M. A. Robb, J. R. Cheeseman, G. Scalmani, V. Barone, 
 G. A. Petersson, H. Nakatsuji, X. Li, M. Caricato, A. V. Marenich, 
 J. Bloino, B. G. Janesko, R. Gomperts, B. Mennucci, H. P. Hratchian, 
 J. V. Ortiz, A. F. Izmaylov, J. L. Sonnenberg, D. Williams-Young, 
 F. Ding, F. Lipparini, F. Egidi, J. Goings, B. Peng, A. Petrone, 
 T. Henderson, D. Ranasinghe, V. G. Zakrzewski, J. Gao, N. Rega, 
 G. Zheng, W. Liang, M. Hada, M. Ehara, K. Toyota, R. Fukuda, 
 J. Hasegawa, M. Ishida, T. Nakajima, Y. Honda, O. Kitao, H. Nakai, 
 T. Vreven, K. Throssell, J. A. Montgomery, Jr., J. E. Peralta, 
 F. Ogliaro, M. J. Bearpark, J. J. Heyd, E. N. Brothers, K. N. Kudin, 
 V. N. Staroverov, T. A. Keith, R. Kobayashi, J. Normand, 
 K. Raghavachari, A. P. Rendell, J. C. Burant, S. S. Iyengar, 
 J. Tomasi, M. Cossi, J. M. Millam, M. Klene, C. Adamo, R. Cammi, 
 J. W. Ochterski, R. L. Martin, K. Morokuma, O. Farkas, 
 J. B. Foresman, and D. J. Fox, Gaussian, Inc., Wallingford CT, 2016.
 
 ******************************************
 Gaussian 16:  EM64W-G16RevA.03 17-Dec-2016
                21-Mar-2023 
 ******************************************
 %nprocshared=16
 Will use up to   16 processors via shared memory.
 %mem=150MW
 %chk=C:\Users\Administrator\Desktop\dataset_dft\C8H6O3\C8H6O3.chk
 --------------------------------
 # scan b3lyp/6-31++g(d,p) nosymm
 --------------------------------
 1/38=1,60=1,172=1/1,8;
 2/12=2,15=1,17=6,18=5,29=3,40=1/2;
 3/5=1,6=6,7=1111,11=2,25=1,30=1,74=-5/1,2,3;
 4//1;
 5/5=2,38=5/2;
 6/7=2,8=2,9=2,10=2,18=1,28=1/1;
 1/60=1/8(1);
 99/9=1/99;
 2/15=1,29=3/2;
 3/5=1,6=6,7=1111,11=2,25=1,30=1,74=-5/1,2,3;
 4/5=5,16=3,69=1/1;
 5/5=2,38=5/2;
 1/60=1/8(-4);
 99/9=1/99;
 -------------------
 Title Card Required
 -------------------
 Symbolic Z-matrix:
 Charge =  0 Multiplicity = 1
 C(PDBName=C,ResName=MOL,ResNum=1)
 C(PDBName=C,ResName=MOL,ResNum=1) 1    B1
 C(PDBName=C,ResName=MOL,ResNum=1) 2    B2       1    A1
 C(PDBName=C,ResName=MOL,ResNum=1) 3    B3       2    A2       1    D1       0
 C(PDBName=C,ResName=MOL,ResNum=1) 4    B4       3    A3       2    D2       0
 C(PDBName=C,ResName=MOL,ResNum=1) 5    B5       4    A4       3    D3       0
 H(PDBName=H,ResName=MOL,ResNum=1) 3    B6       2    A5       1    D4       0
 H(PDBName=H,ResName=MOL,ResNum=1) 4    B7       3    A6       2    D5       0
 H(PDBName=H,ResName=MOL,ResNum=1) 5    B8       4    A7       3    D6       0
 C(PDBName=C,ResName=MOL,ResNum=1) 6    B9       5    A8       4    D7       0
 H(PDBName=H,ResName=MOL,ResNum=1) 10   B10      6    A9       5    D8       0
 O(PDBName=O,ResName=MOL,ResNum=1) 10   B11      6    A10      5    D9       0
 C(PDBName=C,ResName=MOL,ResNum=1) 1    B12      2    A11      3    D10      0
 O(PDBName=O,ResName=MOL,ResNum=1) 13   B13      1    A12      2    D11      0
 H(PDBName=H,ResName=MOL,ResNum=1) 13   B14      1    A13      2    D12      0
 O(PDBName=O,ResName=MOL,ResNum=1) 2    B15      1    A14      6    D13      0
 H(PDBName=H,ResName=MOL,ResNum=1) 16   B16      2    A15      1    D14      0
       Variables:
  B1                    1.41641                  
  B2                    1.40184                  
  B3                    1.38781                  
  B4                    1.39983                  
  B5                    1.39322                  
  B6                    1.08476                  
  B7                    1.08584                  
  B8                    1.08429                  
  B9                    1.     Scan 20    0.1    
  B10                   1.09924                  
  B11                   1.21883                  
  B12                   1.47258                  
  B13                   1.22018                  
  B14                   1.11368                  
  B15                   1.36399                  
  B16                   0.96533                  
  A1                  120.70717                  
  A2                  119.97852                  
  A3                  120.49469                  
  A4                  120.35814                  
  A5                  118.26997                  
  A6                  119.56241                  
  A7                  121.25035                  
  A8                  116.67023                  
  A9                  117.10294                  
  A10                 121.97992                  
  A11                 119.5188                   
  A12                 126.19501                  
  A13                 115.90757                  
  A14                 124.48956                  
  A15                 112.21443                  
  D1                    0.20052                  
  D2                   -0.48168                  
  D3                    0.18979                  
  D4                  179.51916                  
  D5                  179.72238                  
  D6                 -178.84449                  
  D7                 -175.43231                  
  D8                  156.54727                  
  D9                  -21.1966                   
  D10                -178.10749                  
  D11                 163.53528                  
  D12                 -16.9541                   
  D13                 178.79889                  
  D14                  -0.87254                  
 
 Center=      0.67280727     -0.00665505      0.23929353
 Residue   1 PDB Number     1_0 MOL charge    0.00000000 layers R        AvRTP=      0.00000000      0.00000000      0.00000000
 Scan the potential surface.
 Variable   Value     No. Steps Step-Size
 -------- ----------- --------- ---------
     9       1.000000      20      0.1000
 A total of     21 points will be computed.
 ---------------------------------------------------------------------------------------------------
                            Z-MATRIX (ANGSTROMS AND DEGREES)
   CD    Cent   Atom    N1       Length/X        N2       Alpha/Y        N3        Beta/Z          J
 ---------------------------------------------------------------------------------------------------
      1      1  C 
      2      2  C        1   1.416405(     1)
      3      3  C        2   1.401843(     2)      1  120.707(    17)
      4      4  C        3   1.387814(     3)      2  119.979(    18)      1    0.201(    32)      0
      5      5  C        4   1.399832(     4)      3  120.495(    19)      2   -0.482(    33)      0
      6      6  C        5   1.393225(     5)      4  120.358(    20)      3    0.190(    34)      0
      7      7  H        3   1.084756(     6)      2  118.270(    21)      1  179.519(    35)      0
      8      8  H        4   1.085840(     7)      3  119.562(    22)      2  179.722(    36)      0
      9      9  H        5   1.084290(     8)      4  121.250(    23)      3 -178.844(    37)      0
     10     10  C        6   1.000000(     9)      5  116.670(    24)      4 -175.432(    38)      0
     11     11  H       10   1.099244(    10)      6  117.103(    25)      5  156.547(    39)      0
     12     12  O       10   1.218834(    11)      6  121.980(    26)      5  -21.197(    40)      0
     13     13  C        1   1.472578(    12)      2  119.519(    27)      3 -178.107(    41)      0
     14     14  O       13   1.220178(    13)      1  126.195(    28)      2  163.535(    42)      0
     15     15  H       13   1.113681(    14)      1  115.908(    29)      2  -16.954(    43)      0
     16     16  O        2   1.363991(    15)      1  124.490(    30)      6  178.799(    44)      0
     17     17  H       16   0.965333(    16)      2  112.214(    31)      1   -0.873(    45)      0
 ---------------------------------------------------------------------------------------------------
                         Z-Matrix orientation:                         
 ---------------------------------------------------------------------
 Center     Atomic      Atomic             Coordinates (Angstroms)
 Number     Number       Type             X           Y           Z
 ---------------------------------------------------------------------
      1          6           0        0.000000    0.000000    0.000000
      2          6           0        0.000000    0.000000    1.416405
      3          6           0        1.205288    0.000000    2.132257
      4          6           0        2.415384    0.004207    1.452790
      5          6           0        2.444256   -0.001670    0.053268
      6          6           0        1.256849   -0.007847   -0.675499
      7          1           0        1.159177    0.008018    3.216003
      8          1           0        3.344911    0.008756    2.014044
      9          1           0        3.382535   -0.017173   -0.489941
     10          6           0        1.340439   -0.083021   -1.669159
     11          1           0        0.473216   -0.479363   -2.216129
     12          8           0        2.368803    0.209389   -2.254411
     13          6           0       -1.280730    0.042319   -0.725552
     14          8           0       -1.433175    0.326596   -1.902319
     15          1           0       -2.185439   -0.220064   -0.131464
     16          8           0       -1.123825    0.030583    2.188773
     17          1           0       -1.929967    0.066134    1.658925
 ---------------------------------------------------------------------
                    Distance matrix (angstroms):
                    1          2          3          4          5
     1  C    0.000000
     2  C    1.416405   0.000000
     3  C    2.449335   1.401843   0.000000
     4  C    2.818634   2.415662   1.387814   0.000000
     5  C    2.444837   2.798667   2.420174   1.399832   0.000000
     6  C    1.426895   2.440449   2.808240   2.423213   1.393225
     7  H    3.418542   2.140632   1.084756   2.164947   3.413857
     8  H    3.904469   3.397894   2.142905   1.085840   2.157760
     9  H    3.417877   3.882782   3.408317   2.170263   1.084290
    10  C    2.142373   3.365172   3.804724   3.302981   2.047385
    11  H    2.316236   3.694459   4.435558   4.179332   3.043575
    12  O    3.276803   4.373782   4.543178   3.713167   2.318539
    13  C    1.472578   2.496005   3.788027   4.290441   3.805787
    14  O    2.404054   3.629682   4.831766   5.115868   4.355061
    15  H    2.200421   2.687093   4.082877   4.871112   4.638523
    16  O    2.460619   1.363991   2.329999   3.615020   4.158441
    17  H    2.545816   1.946269   3.171473   4.350679   4.660103
                    6          7          8          9         10
     6  C    0.000000
     7  H    3.892760   0.000000
     8  H    3.404985   2.494423   0.000000
     9  H    2.133791   4.321803   2.504402   0.000000
    10  C    1.000000   4.889372   4.194320   2.359036   0.000000
    11  H    1.791633   5.496920   5.136073   3.414305   1.099244
    12  O    1.943347   5.606173   4.383235   2.047520   1.218834
    13  C    2.538568   4.635750   5.376157   4.669592   2.788661
    14  O    2.975428   5.746217   6.186197   5.030314   2.813376
    15  H    3.491468   4.737511   5.936357   5.583189   3.849039
    16  O    3.724666   2.503559   4.472205   5.242621   4.579208
    17  H    3.951051   3.459867   5.287130   5.731252   4.668399
                   11         12         13         14         15
    11  H    0.000000
    12  O    2.017199   0.000000
    13  C    2.360147   3.960355   0.000000
    14  O    2.093412   3.820045   1.220178   0.000000
    15  H    3.388437   5.043060   1.113681   2.000167   0.000000
    16  O    4.713146   5.654406   2.918570   4.113437   2.563854
    17  H    4.592265   5.814993   2.471398   3.605150   1.831029
                   16         17
    16  O    0.000000
    17  H    0.965333   0.000000
 Symmetry turned off by external request.
 Stoichiometry    C8H6O3
 Framework group  C1[X(C8H6O3)]
 Deg. of freedom    45
 Full point group                 C1      NOp   1
 Rotational constants (GHZ):           1.5215975           1.2611228           0.6928978
 Standard basis: 6-31++G(d,p) (6D, 7F)
   245 basis functions,   400 primitive gaussians,   245 cartesian basis functions
    39 alpha electrons       39 beta electrons
       nuclear repulsion energy       584.2404455107 Hartrees.
 NAtoms=   17 NActive=   17 NUniq=   17 SFac= 1.00D+00 NAtFMM=   60 NAOKFM=F Big=F
 Integral buffers will be    131072 words long.
 Raffenetti 2 integral format.
 Two-electron integral symmetry is turned off.
 One-electron integrals computed using PRISM.
 NBasis=   245 RedAO= T EigKep=  1.86D-06  NBF=   245
 NBsUse=   243 1.00D-06 EigRej=  7.22D-07 NBFU=   243
 ExpMin= 3.60D-02 ExpMax= 5.48D+03 ExpMxC= 8.25D+02 IAcc=3 IRadAn=         5 AccDes= 0.00D+00
 Harris functional with IExCor=  402 and IRadAn=       5 diagonalized for initial guess.
 HarFok:  IExCor=  402 AccDes= 0.00D+00 IRadAn=         5 IDoV= 1 UseB2=F ITyADJ=14
 ICtDFT=  3500011 ScaDFX=  1.000000  1.000000  1.000000  1.000000
 FoFCou: FMM=F IPFlag=           0 FMFlag=      100000 FMFlg1=           0
         NFxFlg=           0 DoJE=T BraDBF=F KetDBF=T FulRan=T
         wScrn=  0.000000 ICntrl=       500 IOpCl=  0 I1Cent=   200000004 NGrid=           0
         NMat0=    1 NMatS0=      1 NMatT0=    0 NMatD0=    1 NMtDS0=    0 NMtDT0=    0
 Symmetry not used in FoFCou.
 Requested convergence on RMS density matrix=1.00D-08 within 128 cycles.
 Requested convergence on MAX density matrix=1.00D-06.
 Requested convergence on             energy=1.00D-06.
 No special actions if energy rises.
 EnCoef did     3 forward-backward iterations
 SCF Done:  E(RB3LYP) =  -533.766734614     A.U. after   18 cycles
            NFock= 18  Conv=0.64D-08     -V/T= 2.0040

 **********************************************************************

            Population analysis using the SCF density.

 **********************************************************************

 Alpha  occ. eigenvalues --  -19.23131 -19.18651 -19.12095 -10.31591 -10.30777
 Alpha  occ. eigenvalues --  -10.24735 -10.24014 -10.23815 -10.22926 -10.21941
 Alpha  occ. eigenvalues --  -10.19416  -1.11163  -1.08081  -1.06121  -0.91253
 Alpha  occ. eigenvalues --   -0.84718  -0.80190  -0.73964  -0.69147  -0.63835
 Alpha  occ. eigenvalues --   -0.61325  -0.56842  -0.54258  -0.52501  -0.49907
 Alpha  occ. eigenvalues --   -0.49196  -0.47380  -0.46075  -0.44796  -0.44574
 Alpha  occ. eigenvalues --   -0.42332  -0.41798  -0.39837  -0.37063  -0.35364
 Alpha  occ. eigenvalues --   -0.29254  -0.29062  -0.26296  -0.24087
 Alpha virt. eigenvalues --   -0.13066  -0.07519  -0.02987  -0.01179  -0.00777
 Alpha virt. eigenvalues --    0.01207   0.01984   0.02852   0.03562   0.04538
 Alpha virt. eigenvalues --    0.04770   0.05487   0.06270   0.06645   0.07914
 Alpha virt. eigenvalues --    0.08190   0.09013   0.10055   0.10760   0.10955
 Alpha virt. eigenvalues --    0.11161   0.11729   0.12155   0.12260   0.12878
 Alpha virt. eigenvalues --    0.13522   0.14516   0.15924   0.16053   0.16546
 Alpha virt. eigenvalues --    0.17004   0.17511   0.18075   0.19207   0.19340
 Alpha virt. eigenvalues --    0.19921   0.20355   0.21235   0.21926   0.23177
 Alpha virt. eigenvalues --    0.23967   0.24507   0.24731   0.25590   0.25874
 Alpha virt. eigenvalues --    0.26391   0.27714   0.28074   0.29738   0.30173
 Alpha virt. eigenvalues --    0.30518   0.30960   0.31868   0.32861   0.33336
 Alpha virt. eigenvalues --    0.34291   0.34594   0.35097   0.36150   0.37166
 Alpha virt. eigenvalues --    0.39112   0.39561   0.40047   0.41290   0.43212
 Alpha virt. eigenvalues --    0.46968   0.50416   0.55496   0.57898   0.60012
 Alpha virt. eigenvalues --    0.63141   0.63910   0.67138   0.67917   0.69855
 Alpha virt. eigenvalues --    0.71052   0.71305   0.72376   0.74793   0.75693
 Alpha virt. eigenvalues --    0.77401   0.80814   0.81293   0.83217   0.86122
 Alpha virt. eigenvalues --    0.88441   0.89884   0.90935   0.93239   0.98105
 Alpha virt. eigenvalues --    0.99292   1.01428   1.02991   1.04293   1.07555
 Alpha virt. eigenvalues --    1.08867   1.10269   1.11318   1.14118   1.14509
 Alpha virt. eigenvalues --    1.17647   1.17773   1.19517   1.21918   1.23640
 Alpha virt. eigenvalues --    1.24540   1.26492   1.28038   1.31128   1.31417
 Alpha virt. eigenvalues --    1.32230   1.32674   1.34117   1.35376   1.36358
 Alpha virt. eigenvalues --    1.37093   1.38685   1.39575   1.42137   1.44693
 Alpha virt. eigenvalues --    1.47104   1.50565   1.52319   1.55811   1.60984
 Alpha virt. eigenvalues --    1.62145   1.68597   1.71646   1.73743   1.75402
 Alpha virt. eigenvalues --    1.77676   1.80654   1.84629   1.86475   1.86542
 Alpha virt. eigenvalues --    1.87300   1.89459   1.91920   1.93890   1.96249
 Alpha virt. eigenvalues --    1.98038   1.99307   2.01913   2.04860   2.05912
 Alpha virt. eigenvalues --    2.07596   2.13444   2.17320   2.19503   2.21845
 Alpha virt. eigenvalues --    2.22082   2.25367   2.30470   2.31905   2.33317
 Alpha virt. eigenvalues --    2.33836   2.36373   2.38580   2.42763   2.45281
 Alpha virt. eigenvalues --    2.46721   2.48152   2.50370   2.51063   2.52610
 Alpha virt. eigenvalues --    2.53500   2.58181   2.60013   2.64802   2.65353
 Alpha virt. eigenvalues --    2.70499   2.72566   2.74235   2.76106   2.83491
 Alpha virt. eigenvalues --    2.85949   2.91805   2.97549   3.02050   3.02828
 Alpha virt. eigenvalues --    3.08936   3.13034   3.16547   3.18020   3.25830
 Alpha virt. eigenvalues --    3.30177   3.35698   3.40215   3.43052   3.51142
 Alpha virt. eigenvalues --    3.72381   3.82865   4.17869   4.21763   4.22757
 Alpha virt. eigenvalues --    4.27275   4.28177   4.33285   4.42172   4.54720
 Alpha virt. eigenvalues --    4.55491   4.56556   4.71079   5.13883
          Condensed to atoms (all electrons):
               1          2          3          4          5          6
     1  C   15.748498  -0.569969  -3.862411   2.780515  -3.552958  -3.245717
     2  C   -0.569969   9.685055  -0.282012   0.335850   0.135892  -3.069085
     3  C   -3.862411  -0.282012  10.022363  -1.114619  -0.343729   2.166553
     4  C    2.780515   0.335850  -1.114619   8.768367  -2.013218  -3.171525
     5  C   -3.552958   0.135892  -0.343729  -2.013218  10.022546   1.372743
     6  C   -3.245717  -3.069085   2.166553  -3.171525   1.372743  13.119125
     7  H   -0.063197  -0.104710   0.483495  -0.162207   0.039568   0.116315
     8  H    0.104504   0.061255  -0.146460   0.465824  -0.083775  -0.104277
     9  H    0.190305   0.055013  -0.042287   0.076440   0.155016   0.004889
    10  C   -2.382903  -1.030954   0.411584  -1.005482   0.851737   1.831604
    11  H    0.331337   0.023671  -0.087831   0.102814   0.008773  -0.427623
    12  O    0.065994   0.022070  -0.035775   0.224596  -0.032821  -0.385971
    13  C    0.562812   1.131740  -0.721554   0.829305  -0.609596  -2.770742
    14  O   -0.183268   0.101804   0.058092  -0.002843  -0.086480  -0.079009
    15  H   -0.249917   0.011003   0.000020   0.020095  -0.064545  -0.085301
    16  O    0.236007   0.135164  -0.533292   0.089426   0.015485  -0.042680
    17  H   -0.231970   0.111826   0.126160  -0.007880   0.001466   0.010519
               7          8          9         10         11         12
     1  C   -0.063197   0.104504   0.190305  -2.382903   0.331337   0.065994
     2  C   -0.104710   0.061255   0.055013  -1.030954   0.023671   0.022070
     3  C    0.483495  -0.146460  -0.042287   0.411584  -0.087831  -0.035775
     4  C   -0.162207   0.465824   0.076440  -1.005482   0.102814   0.224596
     5  C    0.039568  -0.083775   0.155016   0.851737   0.008773  -0.032821
     6  C    0.116315  -0.104277   0.004889   1.831604  -0.427623  -0.385971
     7  H    0.593792  -0.018878  -0.003096   0.024331  -0.001077  -0.000603
     8  H   -0.018878   0.606682   0.001974  -0.047193   0.001956   0.003688
     9  H   -0.003096   0.001974   0.542422  -0.166363   0.015129  -0.021712
    10  C    0.024331  -0.047193  -0.166363   7.839275   0.094058   0.204035
    11  H   -0.001077   0.001956   0.015129   0.094058   0.751999  -0.059231
    12  O   -0.000603   0.003688  -0.021712   0.204035  -0.059231   8.451494
    13  C   -0.027632   0.020114   0.003295  -0.960566   0.155255   0.051507
    14  O    0.000625  -0.000209  -0.002845   0.004423  -0.052206  -0.001330
    15  H    0.001161   0.000040  -0.000992   0.007017   0.006310   0.000471
    16  O   -0.037436   0.000292   0.000514   0.016509   0.000935   0.000082
    17  H    0.001166   0.000231  -0.000041  -0.005524  -0.000348  -0.000055
              13         14         15         16         17
     1  C    0.562812  -0.183268  -0.249917   0.236007  -0.231970
     2  C    1.131740   0.101804   0.011003   0.135164   0.111826
     3  C   -0.721554   0.058092   0.000020  -0.533292   0.126160
     4  C    0.829305  -0.002843   0.020095   0.089426  -0.007880
     5  C   -0.609596  -0.086480  -0.064545   0.015485   0.001466
     6  C   -2.770742  -0.079009  -0.085301  -0.042680   0.010519
     7  H   -0.027632   0.000625   0.001161  -0.037436   0.001166
     8  H    0.020114  -0.000209   0.000040   0.000292   0.000231
     9  H    0.003295  -0.002845  -0.000992   0.000514  -0.000041
    10  C   -0.960566   0.004423   0.007017   0.016509  -0.005524
    11  H    0.155255  -0.052206   0.006310   0.000935  -0.000348
    12  O    0.051507  -0.001330   0.000471   0.000082  -0.000055
    13  C    7.670482   0.434575   0.491069   0.020396   0.004702
    14  O    0.434575   8.183702  -0.035693  -0.000662   0.002203
    15  H    0.491069  -0.035693   0.873809  -0.026606  -0.000765
    16  O    0.020396  -0.000662  -0.026606   8.407071   0.171903
    17  H    0.004702   0.002203  -0.000765   0.171903   0.438140
 Mulliken charges:
               1
     1  C    0.322339
     2  C   -0.753614
     3  C   -0.098297
     4  C   -0.215458
     5  C    0.183896
     6  C    0.760183
     7  H    0.158383
     8  H    0.134234
     9  H    0.192340
    10  C    0.314411
    11  H    0.136079
    12  O   -0.486439
    13  C   -0.285162
    14  O   -0.340878
    15  H    0.052823
    16  O   -0.453107
    17  H    0.378268
 Sum of Mulliken charges =   0.00000
 Mulliken charges with hydrogens summed into heavy atoms:
               1
     1  C    0.322339
     2  C   -0.753614
     3  C    0.060085
     4  C   -0.081224
     5  C    0.376236
     6  C    0.760183
    10  C    0.450491
    12  O   -0.486439
    13  C   -0.232338
    14  O   -0.340878
    16  O   -0.074840
 Electronic spatial extent (au):  <R**2>=           1648.0495
 Charge=              0.0000 electrons
 Dipole moment (field-independent basis, Debye):
    X=             -1.1293    Y=             -1.0194    Z=              5.4031  Tot=              5.6132
 Quadrupole moment (field-independent basis, Debye-Ang):
   XX=            -59.8236   YY=            -63.4856   ZZ=            -75.0504
   XY=             -0.6568   XZ=              7.8394   YZ=              2.8487
 Traceless Quadrupole moment (field-independent basis, Debye-Ang):
   XX=              6.2963   YY=              2.6343   ZZ=             -8.9305
   XY=             -0.6568   XZ=              7.8394   YZ=              2.8487
 Octapole moment (field-independent basis, Debye-Ang**2):
  XXX=           -123.4903  YYY=             -6.9521  ZZZ=             31.1327  XYY=            -42.7589
  XXY=             -6.6352  XXZ=             40.2507  XZZ=            -42.6472  YZZ=             -7.9605
  YYZ=             -5.6747  XYZ=              1.3881
 Hexadecapole moment (field-independent basis, Debye-Ang**3):
 XXXX=           -989.1699 YYYY=            -73.0014 ZZZZ=          -1072.1547 XXXY=             -4.6659
 XXXZ=             66.5441 YYYX=              1.6090 YYYZ=             13.0961 ZZZX=            101.7280
 ZZZY=             25.1784 XXYY=           -197.7275 XXZZ=           -400.2146 YYZZ=           -184.8307
 XXYZ=             16.4981 YYXZ=             -0.3030 ZZXY=             -2.7857
 N-N= 5.842404455107D+02 E-N=-2.414898318760D+03  KE= 5.316273998814D+02
 Variable Step   Value    
 -------- ---- -----------
     9       1    2.078699
 ---------------------------------------------------------------------------------------------------
                            Z-MATRIX (ANGSTROMS AND DEGREES)
   CD    Cent   Atom    N1       Length/X        N2       Alpha/Y        N3        Beta/Z          J
 ---------------------------------------------------------------------------------------------------
      1      1  C 
      2      2  C        1   1.416405(     1)
      3      3  C        2   1.401843(     2)      1  120.707(    17)
      4      4  C        3   1.387814(     3)      2  119.979(    18)      1    0.201(    32)      0
      5      5  C        4   1.399832(     4)      3  120.495(    19)      2   -0.482(    33)      0
      6      6  C        5   1.393225(     5)      4  120.358(    20)      3    0.190(    34)      0
      7      7  H        3   1.084756(     6)      2  118.270(    21)      1  179.519(    35)      0
      8      8  H        4   1.085840(     7)      3  119.562(    22)      2  179.722(    36)      0
      9      9  H        5   1.084290(     8)      4  121.250(    23)      3 -178.844(    37)      0
     10     10  C        6   1.100000(     9)      5  116.670(    24)      4 -175.432(    38)      0
     11     11  H       10   1.099244(    10)      6  117.103(    25)      5  156.547(    39)      0
     12     12  O       10   1.218834(    11)      6  121.980(    26)      5  -21.197(    40)      0
     13     13  C        1   1.472578(    12)      2  119.519(    27)      3 -178.107(    41)      0
     14     14  O       13   1.220178(    13)      1  126.195(    28)      2  163.535(    42)      0
     15     15  H       13   1.113681(    14)      1  115.908(    29)      2  -16.954(    43)      0
     16     16  O        2   1.363991(    15)      1  124.490(    30)      6  178.799(    44)      0
     17     17  H       16   0.965333(    16)      2  112.214(    31)      1   -0.873(    45)      0
 ---------------------------------------------------------------------------------------------------
                         Z-Matrix orientation:                         
 ---------------------------------------------------------------------
 Center     Atomic      Atomic             Coordinates (Angstroms)
 Number     Number       Type             X           Y           Z
 ---------------------------------------------------------------------
      1          6           0        0.000000    0.000000    0.000000
      2          6           0        0.000000    0.000000    1.416405
      3          6           0        1.205288    0.000000    2.132257
      4          6           0        2.415384    0.004207    1.452790
      5          6           0        2.444256   -0.001670    0.053268
      6          6           0        1.256849   -0.007847   -0.675499
      7          1           0        1.159177    0.008018    3.216003
      8          1           0        3.344911    0.008756    2.014044
      9          1           0        3.382535   -0.017173   -0.489941
     10          6           0        1.348798   -0.090538   -1.768526
     11          1           0        0.481575   -0.486880   -2.315495
     12          8           0        2.377162    0.201871   -2.353777
     13          6           0       -1.280730    0.042319   -0.725552
     14          8           0       -1.433175    0.326596   -1.902319
     15          1           0       -2.185439   -0.220064   -0.131464
     16          8           0       -1.123825    0.030583    2.188773
     17          1           0       -1.929967    0.066134    1.658925
 ---------------------------------------------------------------------
                    Distance matrix (angstroms):
                    1          2          3          4          5
     1  C    0.000000
     2  C    1.416405   0.000000
     3  C    2.449335   1.401843   0.000000
     4  C    2.818634   2.415662   1.387814   0.000000
     5  C    2.444837   2.798667   2.420174   1.399832   0.000000
     6  C    1.426895   2.440449   2.808240   2.423213   1.393225
     7  H    3.418542   2.140632   1.084756   2.164947   3.413857
     8  H    3.904469   3.397894   2.142905   1.085840   2.157760
     9  H    3.417877   3.882782   3.408317   2.170263   1.084290
    10  C    2.226013   3.459948   3.904472   3.394621   2.127641
    11  H    2.414639   3.794212   4.532473   4.263889   3.114255
    12  O    3.351405   4.461606   4.640964   3.811887   2.416567
    13  C    1.472578   2.496005   3.788027   4.290441   3.805787
    14  O    2.404054   3.629682   4.831766   5.115868   4.355061
    15  H    2.200421   2.687093   4.082877   4.871112   4.638523
    16  O    2.460619   1.363991   2.329999   3.615020   4.158441
    17  H    2.545816   1.946269   3.171473   4.350679   4.660103
                    6          7          8          9         10
     6  C    0.000000
     7  H    3.892760   0.000000
     8  H    3.404985   2.494423   0.000000
     9  H    2.133791   4.321803   2.504402   0.000000
    10  C    1.100000   4.989108   4.278102   2.403383   0.000000
    11  H    1.876195   5.594777   5.214331   3.459601   1.099244
    12  O    2.028719   5.704693   4.477912   2.129000   1.218834
    13  C    2.538568   4.635750   5.376157   4.669592   2.831935
    14  O    2.975428   5.746217   6.186197   5.030314   2.816252
    15  H    3.491468   4.737511   5.936357   5.583189   3.897124
    16  O    3.724666   2.503559   4.472205   5.242621   4.667842
    17  H    3.951051   3.459867   5.287130   5.731252   4.745763
                   11         12         13         14         15
    11  H    0.000000
    12  O    2.017199   0.000000
    13  C    2.431807   4.007087   0.000000
    14  O    2.121020   3.839015   1.220178   0.000000
    15  H    3.457477   5.092546   1.113681   2.000167   0.000000
    16  O    4.809731   5.737684   2.918570   4.113437   2.563854
    17  H    4.681600   5.888256   2.471398   3.605150   1.831029
                   16         17
    16  O    0.000000
    17  H    0.965333   0.000000
 Symmetry turned off by external request.
 Stoichiometry    C8H6O3
 Framework group  C1[X(C8H6O3)]
 Deg. of freedom    45
 Full point group                 C1      NOp   1
 Rotational constants (GHZ):           1.5246465           1.2215352           0.6814246
 Standard basis: 6-31++G(d,p) (6D, 7F)
   245 basis functions,   400 primitive gaussians,   245 cartesian basis functions
    39 alpha electrons       39 beta electrons
       nuclear repulsion energy       578.8733964040 Hartrees.
 NAtoms=   17 NActive=   17 NUniq=   17 SFac= 1.00D+00 NAtFMM=   60 NAOKFM=F Big=F
 Integral buffers will be    131072 words long.
 Raffenetti 2 integral format.
 Two-electron integral symmetry is turned off.
 One-electron integrals computed using PRISM.
 NBasis=   245 RedAO= T EigKep=  1.12D-06  NBF=   245
 NBsUse=   244 1.00D-06 EigRej=  5.25D-07 NBFU=   244
 Initial guess from the checkpoint file:  "C:\Users\Administrator\Desktop\dataset_dft\C8H6O3\C8H6O3.chk"
 B after Tr=     0.002956   -0.001825   -0.031422
         Rot=    0.999998    0.000552   -0.002015    0.000399 Ang=   0.24 deg.
 ExpMin= 3.60D-02 ExpMax= 5.48D+03 ExpMxC= 8.25D+02 IAcc=3 IRadAn=         5 AccDes= 0.00D+00
 Harris functional with IExCor=  402 and IRadAn=       5 diagonalized for initial guess.
 HarFok:  IExCor=  402 AccDes= 0.00D+00 IRadAn=         5 IDoV= 1 UseB2=F ITyADJ=14
 ICtDFT=  3500011 ScaDFX=  1.000000  1.000000  1.000000  1.000000
 FoFCou: FMM=F IPFlag=           0 FMFlag=      100000 FMFlg1=           0
         NFxFlg=           0 DoJE=T BraDBF=F KetDBF=T FulRan=T
         wScrn=  0.000000 ICntrl=       500 IOpCl=  0 I1Cent=   200000004 NGrid=           0
         NMat0=    1 NMatS0=      1 NMatT0=    0 NMatD0=    1 NMtDS0=    0 NMtDT0=    0
 Symmetry not used in FoFCou.
 Requested convergence on RMS density matrix=1.00D-08 within 128 cycles.
 Requested convergence on MAX density matrix=1.00D-06.
 Requested convergence on             energy=1.00D-06.
 No special actions if energy rises.
 SCF Done:  E(RB3LYP) =  -533.951836338     A.U. after   16 cycles
            NFock= 16  Conv=0.52D-08     -V/T= 2.0059
 Variable Step   Value    
 -------- ---- -----------
     9       2    2.267671
 ---------------------------------------------------------------------------------------------------
                            Z-MATRIX (ANGSTROMS AND DEGREES)
   CD    Cent   Atom    N1       Length/X        N2       Alpha/Y        N3        Beta/Z          J
 ---------------------------------------------------------------------------------------------------
      1      1  C 
      2      2  C        1   1.416405(     1)
      3      3  C        2   1.401843(     2)      1  120.707(    17)
      4      4  C        3   1.387814(     3)      2  119.979(    18)      1    0.201(    32)      0
      5      5  C        4   1.399832(     4)      3  120.495(    19)      2   -0.482(    33)      0
      6      6  C        5   1.393225(     5)      4  120.358(    20)      3    0.190(    34)      0
      7      7  H        3   1.084756(     6)      2  118.270(    21)      1  179.519(    35)      0
      8      8  H        4   1.085840(     7)      3  119.562(    22)      2  179.722(    36)      0
      9      9  H        5   1.084290(     8)      4  121.250(    23)      3 -178.844(    37)      0
     10     10  C        6   1.200000(     9)      5  116.670(    24)      4 -175.432(    38)      0
     11     11  H       10   1.099244(    10)      6  117.103(    25)      5  156.547(    39)      0
     12     12  O       10   1.218834(    11)      6  121.980(    26)      5  -21.197(    40)      0
     13     13  C        1   1.472578(    12)      2  119.519(    27)      3 -178.107(    41)      0
     14     14  O       13   1.220178(    13)      1  126.195(    28)      2  163.535(    42)      0
     15     15  H       13   1.113681(    14)      1  115.908(    29)      2  -16.954(    43)      0
     16     16  O        2   1.363991(    15)      1  124.490(    30)      6  178.799(    44)      0
     17     17  H       16   0.965333(    16)      2  112.214(    31)      1   -0.873(    45)      0
 ---------------------------------------------------------------------------------------------------
                         Z-Matrix orientation:                         
 ---------------------------------------------------------------------
 Center     Atomic      Atomic             Coordinates (Angstroms)
 Number     Number       Type             X           Y           Z
 ---------------------------------------------------------------------
      1          6           0        0.000000    0.000000    0.000000
      2          6           0        0.000000    0.000000    1.416405
      3          6           0        1.205288    0.000000    2.132257
      4          6           0        2.415384    0.004207    1.452790
      5          6           0        2.444256   -0.001670    0.053268
      6          6           0        1.256849   -0.007847   -0.675499
      7          1           0        1.159177    0.008018    3.216003
      8          1           0        3.344911    0.008756    2.014044
      9          1           0        3.382535   -0.017173   -0.489941
     10          6           0        1.357157   -0.098056   -1.867892
     11          1           0        0.489934   -0.494398   -2.414861
     12          8           0        2.385521    0.194354   -2.453143
     13          6           0       -1.280730    0.042319   -0.725552
     14          8           0       -1.433175    0.326596   -1.902319
     15          1           0       -2.185439   -0.220064   -0.131464
     16          8           0       -1.123825    0.030583    2.188773
     17          1           0       -1.929967    0.066134    1.658925
 ---------------------------------------------------------------------
                    Distance matrix (angstroms):
                    1          2          3          4          5
     1  C    0.000000
     2  C    1.416405   0.000000
     3  C    2.449335   1.401843   0.000000
     4  C    2.818634   2.415662   1.387814   0.000000
     5  C    2.444837   2.798667   2.420174   1.399832   0.000000
     6  C    1.426895   2.440449   2.808240   2.423213   1.393225
     7  H    3.418542   2.140632   1.084756   2.164947   3.413857
     8  H    3.904469   3.397894   2.142905   1.085840   2.157760
     9  H    3.417877   3.882782   3.408317   2.170263   1.084290
    10  C    2.310954   3.555010   4.004231   3.486721   2.209509
    11  H    2.513169   3.893978   4.629518   4.349101   3.186505
    12  O    3.427302   4.549933   4.738842   3.910672   2.514751
    13  C    1.472578   2.496005   3.788027   4.290441   3.805787
    14  O    2.404054   3.629682   4.831766   5.115868   4.355061
    15  H    2.200421   2.687093   4.082877   4.871112   4.638523
    16  O    2.460619   1.363991   2.329999   3.615020   4.158441
    17  H    2.545816   1.946269   3.171473   4.350679   4.660103
                    6          7          8          9         10
     6  C    0.000000
     7  H    3.892760   0.000000
     8  H    3.404985   2.494423   0.000000
     9  H    2.133791   4.321803   2.504402   0.000000
    10  C    1.200000   5.088854   4.362568   2.451009   0.000000
    11  H    1.962210   5.692709   5.293321   3.507164   1.099244
    12  O    2.115374   5.803263   4.572815   2.212000   1.218834
    13  C    2.538568   4.635750   5.376157   4.669592   2.878036
    14  O    2.975428   5.746217   6.186197   5.030314   2.822670
    15  H    3.491468   4.737511   5.936357   5.583189   3.947157
    16  O    3.724666   2.503559   4.472205   5.242621   4.756927
    17  H    3.951051   3.459867   5.287130   5.731252   4.823959
                   11         12         13         14         15
    11  H    0.000000
    12  O    2.017199   0.000000
    13  C    2.505410   4.055746   0.000000
    14  O    2.152923   3.860484   1.220178   0.000000
    15  H    3.527999   5.143502   1.113681   2.000167   0.000000
    16  O    4.906452   5.821488   2.918570   4.113437   2.563854
    17  H    4.771357   5.962297   2.471398   3.605150   1.831029
                   16         17
    16  O    0.000000
    17  H    0.965333   0.000000
 Symmetry turned off by external request.
 Stoichiometry    C8H6O3
 Framework group  C1[X(C8H6O3)]
 Deg. of freedom    45
 Full point group                 C1      NOp   1
 Rotational constants (GHZ):           1.5276288           1.1831022           0.6699110
 Standard basis: 6-31++G(d,p) (6D, 7F)
   245 basis functions,   400 primitive gaussians,   245 cartesian basis functions
    39 alpha electrons       39 beta electrons
       nuclear repulsion energy       573.9506644219 Hartrees.
 NAtoms=   17 NActive=   17 NUniq=   17 SFac= 1.00D+00 NAtFMM=   60 NAOKFM=F Big=F
 Integral buffers will be    131072 words long.
 Raffenetti 2 integral format.
 Two-electron integral symmetry is turned off.
 One-electron integrals computed using PRISM.
 NBasis=   245 RedAO= T EigKep=  1.55D-06  NBF=   245
 NBsUse=   244 1.00D-06 EigRej=  5.33D-07 NBFU=   244
 Initial guess from the checkpoint file:  "C:\Users\Administrator\Desktop\dataset_dft\C8H6O3\C8H6O3.chk"
 B after Tr=     0.003103   -0.001805   -0.031493
         Rot=    0.999998    0.000533   -0.001982    0.000390 Ang=   0.24 deg.
 ExpMin= 3.60D-02 ExpMax= 5.48D+03 ExpMxC= 8.25D+02 IAcc=3 IRadAn=         5 AccDes= 0.00D+00
 Harris functional with IExCor=  402 and IRadAn=       5 diagonalized for initial guess.
 HarFok:  IExCor=  402 AccDes= 0.00D+00 IRadAn=         5 IDoV= 1 UseB2=F ITyADJ=14
 ICtDFT=  3500011 ScaDFX=  1.000000  1.000000  1.000000  1.000000
 FoFCou: FMM=F IPFlag=           0 FMFlag=      100000 FMFlg1=           0
         NFxFlg=           0 DoJE=T BraDBF=F KetDBF=T FulRan=T
         wScrn=  0.000000 ICntrl=       500 IOpCl=  0 I1Cent=   200000004 NGrid=           0
         NMat0=    1 NMatS0=      1 NMatT0=    0 NMatD0=    1 NMtDS0=    0 NMtDT0=    0
 Symmetry not used in FoFCou.
 Requested convergence on RMS density matrix=1.00D-08 within 128 cycles.
 Requested convergence on MAX density matrix=1.00D-06.
 Requested convergence on             energy=1.00D-06.
 No special actions if energy rises.
 SCF Done:  E(RB3LYP) =  -534.055149481     A.U. after   16 cycles
            NFock= 16  Conv=0.17D-08     -V/T= 2.0073
 Variable Step   Value    
 -------- ---- -----------
     9       3    2.456644
 ---------------------------------------------------------------------------------------------------
                            Z-MATRIX (ANGSTROMS AND DEGREES)
   CD    Cent   Atom    N1       Length/X        N2       Alpha/Y        N3        Beta/Z          J
 ---------------------------------------------------------------------------------------------------
      1      1  C 
      2      2  C        1   1.416405(     1)
      3      3  C        2   1.401843(     2)      1  120.707(    17)
      4      4  C        3   1.387814(     3)      2  119.979(    18)      1    0.201(    32)      0
      5      5  C        4   1.399832(     4)      3  120.495(    19)      2   -0.482(    33)      0
      6      6  C        5   1.393225(     5)      4  120.358(    20)      3    0.190(    34)      0
      7      7  H        3   1.084756(     6)      2  118.270(    21)      1  179.519(    35)      0
      8      8  H        4   1.085840(     7)      3  119.562(    22)      2  179.722(    36)      0
      9      9  H        5   1.084290(     8)      4  121.250(    23)      3 -178.844(    37)      0
     10     10  C        6   1.300000(     9)      5  116.670(    24)      4 -175.432(    38)      0
     11     11  H       10   1.099244(    10)      6  117.103(    25)      5  156.547(    39)      0
     12     12  O       10   1.218834(    11)      6  121.980(    26)      5  -21.197(    40)      0
     13     13  C        1   1.472578(    12)      2  119.519(    27)      3 -178.107(    41)      0
     14     14  O       13   1.220178(    13)      1  126.195(    28)      2  163.535(    42)      0
     15     15  H       13   1.113681(    14)      1  115.908(    29)      2  -16.954(    43)      0
     16     16  O        2   1.363991(    15)      1  124.490(    30)      6  178.799(    44)      0
     17     17  H       16   0.965333(    16)      2  112.214(    31)      1   -0.873(    45)      0
 ---------------------------------------------------------------------------------------------------
                         Z-Matrix orientation:                         
 ---------------------------------------------------------------------
 Center     Atomic      Atomic             Coordinates (Angstroms)
 Number     Number       Type             X           Y           Z
 ---------------------------------------------------------------------
      1          6           0        0.000000    0.000000    0.000000
      2          6           0        0.000000    0.000000    1.416405
      3          6           0        1.205288    0.000000    2.132257
      4          6           0        2.415384    0.004207    1.452790
      5          6           0        2.444256   -0.001670    0.053268
      6          6           0        1.256849   -0.007847   -0.675499
      7          1           0        1.159177    0.008018    3.216003
      8          1           0        3.344911    0.008756    2.014044
      9          1           0        3.382535   -0.017173   -0.489941
     10          6           0        1.365516   -0.105573   -1.967258
     11          1           0        0.498293   -0.501915   -2.514227
     12          8           0        2.393880    0.186837   -2.552509
     13          6           0       -1.280730    0.042319   -0.725552
     14          8           0       -1.433175    0.326596   -1.902319
     15          1           0       -2.185439   -0.220064   -0.131464
     16          8           0       -1.123825    0.030583    2.188773
     17          1           0       -1.929967    0.066134    1.658925
 ---------------------------------------------------------------------
                    Distance matrix (angstroms):
                    1          2          3          4          5
     1  C    0.000000
     2  C    1.416405   0.000000
     3  C    2.449335   1.401843   0.000000
     4  C    2.818634   2.415662   1.387814   0.000000
     5  C    2.444837   2.798667   2.420174   1.399832   0.000000
     6  C    1.426895   2.440449   2.808240   2.423213   1.393225
     7  H    3.418542   2.140632   1.084756   2.164947   3.413857
     8  H    3.904469   3.397894   2.142905   1.085840   2.157760
     9  H    3.417877   3.882782   3.408317   2.170263   1.084290
    10  C    2.397057   3.650336   4.104003   3.579245   2.292815
    11  H    2.611810   3.993756   4.726687   4.434931   3.260222
    12  O    3.504408   4.638734   4.836806   4.009518   2.613073
    13  C    1.472578   2.496005   3.788027   4.290441   3.805787
    14  O    2.404054   3.629682   4.831766   5.115868   4.355061
    15  H    2.200421   2.687093   4.082877   4.871112   4.638523
    16  O    2.460619   1.363991   2.329999   3.615020   4.158441
    17  H    2.545816   1.946269   3.171473   4.350679   4.660103
                    6          7          8          9         10
     6  C    0.000000
     7  H    3.892760   0.000000
     8  H    3.404985   2.494423   0.000000
     9  H    2.133791   4.321803   2.504402   0.000000
    10  C    1.300000   5.188610   4.447678   2.501729   0.000000
    11  H    2.049495   5.790711   5.373011   3.556903   1.099244
    12  O    2.203159   5.901881   4.667931   2.296355   1.218834
    13  C    2.538568   4.635750   5.376157   4.669592   2.926827
    14  O    2.975428   5.746217   6.186197   5.030314   2.832606
    15  H    3.491468   4.737511   5.936357   5.583189   3.999065
    16  O    3.724666   2.503559   4.472205   5.242621   4.846437
    17  H    3.951051   3.459867   5.287130   5.731252   4.902947
                   11         12         13         14         15
    11  H    0.000000
    12  O    2.017199   0.000000
    13  C    2.580788   4.106265   0.000000
    14  O    2.188934   3.884409   1.220178   0.000000
    15  H    3.599919   5.195882   1.113681   2.000167   0.000000
    16  O    5.003302   5.905796   2.918570   4.113437   2.563854
    17  H    4.861515   6.037086   2.471398   3.605150   1.831029
                   16         17
    16  O    0.000000
    17  H    0.965333   0.000000
 Symmetry turned off by external request.
 Stoichiometry    C8H6O3
 Framework group  C1[X(C8H6O3)]
 Deg. of freedom    45
 Full point group                 C1      NOp   1
 Rotational constants (GHZ):           1.5305325           1.1458433           0.6583799
 Standard basis: 6-31++G(d,p) (6D, 7F)
   245 basis functions,   400 primitive gaussians,   245 cartesian basis functions
    39 alpha electrons       39 beta electrons
       nuclear repulsion energy       569.3957636203 Hartrees.
 NAtoms=   17 NActive=   17 NUniq=   17 SFac= 1.00D+00 NAtFMM=   60 NAOKFM=F Big=F
 Integral buffers will be    131072 words long.
 Raffenetti 2 integral format.
 Two-electron integral symmetry is turned off.
 One-electron integrals computed using PRISM.
 NBasis=   245 RedAO= T EigKep=  1.80D-06  NBF=   245
 NBsUse=   244 1.00D-06 EigRej=  5.35D-07 NBFU=   244
 Initial guess from the checkpoint file:  "C:\Users\Administrator\Desktop\dataset_dft\C8H6O3\C8H6O3.chk"
 B after Tr=     0.003245   -0.001787   -0.031564
         Rot=    0.999998    0.000515   -0.001948    0.000381 Ang=   0.23 deg.
 ExpMin= 3.60D-02 ExpMax= 5.48D+03 ExpMxC= 8.25D+02 IAcc=3 IRadAn=         5 AccDes= 0.00D+00
 Harris functional with IExCor=  402 and IRadAn=       5 diagonalized for initial guess.
 HarFok:  IExCor=  402 AccDes= 0.00D+00 IRadAn=         5 IDoV= 1 UseB2=F ITyADJ=14
 ICtDFT=  3500011 ScaDFX=  1.000000  1.000000  1.000000  1.000000
 FoFCou: FMM=F IPFlag=           0 FMFlag=      100000 FMFlg1=           0
         NFxFlg=           0 DoJE=T BraDBF=F KetDBF=T FulRan=T
         wScrn=  0.000000 ICntrl=       500 IOpCl=  0 I1Cent=   200000004 NGrid=           0
         NMat0=    1 NMatS0=      1 NMatT0=    0 NMatD0=    1 NMtDS0=    0 NMtDT0=    0
 Symmetry not used in FoFCou.
 Requested convergence on RMS density matrix=1.00D-08 within 128 cycles.
 Requested convergence on MAX density matrix=1.00D-06.
 Requested convergence on             energy=1.00D-06.
 No special actions if energy rises.
 EnCoef did     1 forward-backward iterations
 SCF Done:  E(RB3LYP) =  -534.108904699     A.U. after   14 cycles
            NFock= 14  Conv=0.84D-08     -V/T= 2.0082
 Variable Step   Value    
 -------- ---- -----------
     9       4    2.645617
 ---------------------------------------------------------------------------------------------------
                            Z-MATRIX (ANGSTROMS AND DEGREES)
   CD    Cent   Atom    N1       Length/X        N2       Alpha/Y        N3        Beta/Z          J
 ---------------------------------------------------------------------------------------------------
      1      1  C 
      2      2  C        1   1.416405(     1)
      3      3  C        2   1.401843(     2)      1  120.707(    17)
      4      4  C        3   1.387814(     3)      2  119.979(    18)      1    0.201(    32)      0
      5      5  C        4   1.399832(     4)      3  120.495(    19)      2   -0.482(    33)      0
      6      6  C        5   1.393225(     5)      4  120.358(    20)      3    0.190(    34)      0
      7      7  H        3   1.084756(     6)      2  118.270(    21)      1  179.519(    35)      0
      8      8  H        4   1.085840(     7)      3  119.562(    22)      2  179.722(    36)      0
      9      9  H        5   1.084290(     8)      4  121.250(    23)      3 -178.844(    37)      0
     10     10  C        6   1.400000(     9)      5  116.670(    24)      4 -175.432(    38)      0
     11     11  H       10   1.099244(    10)      6  117.103(    25)      5  156.547(    39)      0
     12     12  O       10   1.218834(    11)      6  121.980(    26)      5  -21.197(    40)      0
     13     13  C        1   1.472578(    12)      2  119.519(    27)      3 -178.107(    41)      0
     14     14  O       13   1.220178(    13)      1  126.195(    28)      2  163.535(    42)      0
     15     15  H       13   1.113681(    14)      1  115.908(    29)      2  -16.954(    43)      0
     16     16  O        2   1.363991(    15)      1  124.490(    30)      6  178.799(    44)      0
     17     17  H       16   0.965333(    16)      2  112.214(    31)      1   -0.873(    45)      0
 ---------------------------------------------------------------------------------------------------
                         Z-Matrix orientation:                         
 ---------------------------------------------------------------------
 Center     Atomic      Atomic             Coordinates (Angstroms)
 Number     Number       Type             X           Y           Z
 ---------------------------------------------------------------------
      1          6           0        0.000000    0.000000    0.000000
      2          6           0        0.000000    0.000000    1.416405
      3          6           0        1.205288    0.000000    2.132257
      4          6           0        2.415384    0.004207    1.452790
      5          6           0        2.444256   -0.001670    0.053268
      6          6           0        1.256849   -0.007847   -0.675499
      7          1           0        1.159177    0.008018    3.216003
      8          1           0        3.344911    0.008756    2.014044
      9          1           0        3.382535   -0.017173   -0.489941
     10          6           0        1.373875   -0.113090   -2.066624
     11          1           0        0.506652   -0.509432   -2.613593
     12          8           0        2.402239    0.179319   -2.651876
     13          6           0       -1.280730    0.042319   -0.725552
     14          8           0       -1.433175    0.326596   -1.902319
     15          1           0       -2.185439   -0.220064   -0.131464
     16          8           0       -1.123825    0.030583    2.188773
     17          1           0       -1.929967    0.066134    1.658925
 ---------------------------------------------------------------------
                    Distance matrix (angstroms):
                    1          2          3          4          5
     1  C    0.000000
     2  C    1.416405   0.000000
     3  C    2.449335   1.401843   0.000000
     4  C    2.818634   2.415662   1.387814   0.000000
     5  C    2.444837   2.798667   2.420174   1.399832   0.000000
     6  C    1.426895   2.440449   2.808240   2.423213   1.393225
     7  H    3.418542   2.140632   1.084756   2.164947   3.413857
     8  H    3.904469   3.397894   2.142905   1.085840   2.157760
     9  H    3.417877   3.882782   3.408317   2.170263   1.084290
    10  C    2.484201   3.745906   4.203785   3.672161   2.377409
    11  H    2.710551   4.093544   4.823972   4.521344   3.335308
    12  O    3.582646   4.727982   4.934853   4.108420   2.711517
    13  C    1.472578   2.496005   3.788027   4.290441   3.805787
    14  O    2.404054   3.629682   4.831766   5.115868   4.355061
    15  H    2.200421   2.687093   4.082877   4.871112   4.638523
    16  O    2.460619   1.363991   2.329999   3.615020   4.158441
    17  H    2.545816   1.946269   3.171473   4.350679   4.660103
                    6          7          8          9         10
     6  C    0.000000
     7  H    3.892760   0.000000
     8  H    3.404985   2.494423   0.000000
     9  H    2.133791   4.321803   2.504402   0.000000
    10  C    1.400000   5.288375   4.533396   2.555356   0.000000
    11  H    2.137894   5.888780   5.453371   3.608728   1.099244
    12  O    2.291946   6.000546   4.763247   2.381921   1.218834
    13  C    2.538568   4.635750   5.376157   4.669592   2.978179
    14  O    2.975428   5.746217   6.186197   5.030314   2.846024
    15  H    3.491468   4.737511   5.936357   5.583189   4.052777
    16  O    3.724666   2.503559   4.472205   5.242621   4.936350
    17  H    3.951051   3.459867   5.287130   5.731252   4.982691
                   11         12         13         14         15
    11  H    0.000000
    12  O    2.017199   0.000000
    13  C    2.657792   4.158575   0.000000
    14  O    2.228853   3.910745   1.220178   0.000000
    15  H    3.673153   5.249644   1.113681   2.000167   0.000000
    16  O    5.100274   5.990587   2.918570   4.113437   2.563854
    17  H    4.952050   6.112595   2.471398   3.605150   1.831029
                   16         17
    16  O    0.000000
    17  H    0.965333   0.000000
 Symmetry turned off by external request.
 Stoichiometry    C8H6O3
 Framework group  C1[X(C8H6O3)]
 Deg. of freedom    45
 Full point group                 C1      NOp   1
 Rotational constants (GHZ):           1.5333528           1.1097641           0.6468525
 Standard basis: 6-31++G(d,p) (6D, 7F)
   245 basis functions,   400 primitive gaussians,   245 cartesian basis functions
    39 alpha electrons       39 beta electrons
       nuclear repulsion energy       565.1519041684 Hartrees.
 NAtoms=   17 NActive=   17 NUniq=   17 SFac= 1.00D+00 NAtFMM=   60 NAOKFM=F Big=F
 Integral buffers will be    131072 words long.
 Raffenetti 2 integral format.
 Two-electron integral symmetry is turned off.
 One-electron integrals computed using PRISM.
 NBasis=   245 RedAO= T EigKep=  1.94D-06  NBF=   245
 NBsUse=   244 1.00D-06 EigRej=  5.36D-07 NBFU=   244
 Initial guess from the checkpoint file:  "C:\Users\Administrator\Desktop\dataset_dft\C8H6O3\C8H6O3.chk"
 B after Tr=     0.003382   -0.001771   -0.031635
         Rot=    0.999998    0.000498   -0.001914    0.000373 Ang=   0.23 deg.
 ExpMin= 3.60D-02 ExpMax= 5.48D+03 ExpMxC= 8.25D+02 IAcc=3 IRadAn=         5 AccDes= 0.00D+00
 Harris functional with IExCor=  402 and IRadAn=       5 diagonalized for initial guess.
 HarFok:  IExCor=  402 AccDes= 0.00D+00 IRadAn=         5 IDoV= 1 UseB2=F ITyADJ=14
 ICtDFT=  3500011 ScaDFX=  1.000000  1.000000  1.000000  1.000000
 FoFCou: FMM=F IPFlag=           0 FMFlag=      100000 FMFlg1=           0
         NFxFlg=           0 DoJE=T BraDBF=F KetDBF=T FulRan=T
         wScrn=  0.000000 ICntrl=       500 IOpCl=  0 I1Cent=   200000004 NGrid=           0
         NMat0=    1 NMatS0=      1 NMatT0=    0 NMatD0=    1 NMtDS0=    0 NMtDT0=    0
 Symmetry not used in FoFCou.
 Requested convergence on RMS density matrix=1.00D-08 within 128 cycles.
 Requested convergence on MAX density matrix=1.00D-06.
 Requested convergence on             energy=1.00D-06.
 No special actions if energy rises.
 SCF Done:  E(RB3LYP) =  -534.132819056     A.U. after   14 cycles
            NFock= 14  Conv=0.53D-08     -V/T= 2.0089
 Variable Step   Value    
 -------- ---- -----------
     9       5    2.834589
 ---------------------------------------------------------------------------------------------------
                            Z-MATRIX (ANGSTROMS AND DEGREES)
   CD    Cent   Atom    N1       Length/X        N2       Alpha/Y        N3        Beta/Z          J
 ---------------------------------------------------------------------------------------------------
      1      1  C 
      2      2  C        1   1.416405(     1)
      3      3  C        2   1.401843(     2)      1  120.707(    17)
      4      4  C        3   1.387814(     3)      2  119.979(    18)      1    0.201(    32)      0
      5      5  C        4   1.399832(     4)      3  120.495(    19)      2   -0.482(    33)      0
      6      6  C        5   1.393225(     5)      4  120.358(    20)      3    0.190(    34)      0
      7      7  H        3   1.084756(     6)      2  118.270(    21)      1  179.519(    35)      0
      8      8  H        4   1.085840(     7)      3  119.562(    22)      2  179.722(    36)      0
      9      9  H        5   1.084290(     8)      4  121.250(    23)      3 -178.844(    37)      0
     10     10  C        6   1.500000(     9)      5  116.670(    24)      4 -175.432(    38)      0
     11     11  H       10   1.099244(    10)      6  117.103(    25)      5  156.547(    39)      0
     12     12  O       10   1.218834(    11)      6  121.980(    26)      5  -21.197(    40)      0
     13     13  C        1   1.472578(    12)      2  119.519(    27)      3 -178.107(    41)      0
     14     14  O       13   1.220178(    13)      1  126.195(    28)      2  163.535(    42)      0
     15     15  H       13   1.113681(    14)      1  115.908(    29)      2  -16.954(    43)      0
     16     16  O        2   1.363991(    15)      1  124.490(    30)      6  178.799(    44)      0
     17     17  H       16   0.965333(    16)      2  112.214(    31)      1   -0.873(    45)      0
 ---------------------------------------------------------------------------------------------------
                         Z-Matrix orientation:                         
 ---------------------------------------------------------------------
 Center     Atomic      Atomic             Coordinates (Angstroms)
 Number     Number       Type             X           Y           Z
 ---------------------------------------------------------------------
      1          6           0        0.000000    0.000000    0.000000
      2          6           0        0.000000    0.000000    1.416405
      3          6           0        1.205288    0.000000    2.132257
      4          6           0        2.415384    0.004207    1.452790
      5          6           0        2.444256   -0.001670    0.053268
      6          6           0        1.256849   -0.007847   -0.675499
      7          1           0        1.159177    0.008018    3.216003
      8          1           0        3.344911    0.008756    2.014044
      9          1           0        3.382535   -0.017173   -0.489941
     10          6           0        1.382234   -0.120608   -2.165990
     11          1           0        0.515011   -0.516950   -2.712959
     12          8           0        2.410598    0.171802   -2.751242
     13          6           0       -1.280730    0.042319   -0.725552
     14          8           0       -1.433175    0.326596   -1.902319
     15          1           0       -2.185439   -0.220064   -0.131464
     16          8           0       -1.123825    0.030583    2.188773
     17          1           0       -1.929967    0.066134    1.658925
 ---------------------------------------------------------------------
                    Distance matrix (angstroms):
                    1          2          3          4          5
     1  C    0.000000
     2  C    1.416405   0.000000
     3  C    2.449335   1.401843   0.000000
     4  C    2.818634   2.415662   1.387814   0.000000
     5  C    2.444837   2.798667   2.420174   1.399832   0.000000
     6  C    1.426895   2.440449   2.808240   2.423213   1.393225
     7  H    3.418542   2.140632   1.084756   2.164947   3.413857
     8  H    3.904469   3.397894   2.142905   1.085840   2.157760
     9  H    3.417877   3.882782   3.408317   2.170263   1.084290
    10  C    2.572281   3.841702   4.303578   3.765440   2.463157
    11  H    2.809381   4.193343   4.921365   4.608306   3.411673
    12  O    3.661943   4.817653   5.032976   4.207373   2.810071
    13  C    1.472578   2.496005   3.788027   4.290441   3.805787
    14  O    2.404054   3.629682   4.831766   5.115868   4.355061
    15  H    2.200421   2.687093   4.082877   4.871112   4.638523
    16  O    2.460619   1.363991   2.329999   3.615020   4.158441
    17  H    2.545816   1.946269   3.171473   4.350679   4.660103
                    6          7          8          9         10
     6  C    0.000000
     7  H    3.892760   0.000000
     8  H    3.404985   2.494423   0.000000
     9  H    2.133791   4.321803   2.504402   0.000000
    10  C    1.500000   5.388149   4.619688   2.611713   0.000000
    11  H    2.227275   5.986913   5.534370   3.662551   1.099244
    12  O    2.381621   6.099253   4.858752   2.468573   1.218834
    13  C    2.538568   4.635750   5.376157   4.669592   3.031960
    14  O    2.975428   5.746217   6.186197   5.030314   2.862873
    15  H    3.491468   4.737511   5.936357   5.583189   4.108220
    16  O    3.724666   2.503559   4.472205   5.242621   5.026644
    17  H    3.951051   3.459867   5.287130   5.731252   5.063153
                   11         12         13         14         15
    11  H    0.000000
    12  O    2.017199   0.000000
    13  C    2.736284   4.212610   0.000000
    14  O    2.272474   3.939444   1.220178   0.000000
    15  H    3.747624   5.304747   1.113681   2.000167   0.000000
    16  O    5.197361   6.075840   2.918570   4.113437   2.563854
    17  H    5.042943   6.188800   2.471398   3.605150   1.831029
                   16         17
    16  O    0.000000
    17  H    0.965333   0.000000
 Symmetry turned off by external request.
 Stoichiometry    C8H6O3
 Framework group  C1[X(C8H6O3)]
 Deg. of freedom    45
 Full point group                 C1      NOp   1
 Rotational constants (GHZ):           1.5360884           1.0748607           0.6353489
 Standard basis: 6-31++G(d,p) (6D, 7F)
   245 basis functions,   400 primitive gaussians,   245 cartesian basis functions
    39 alpha electrons       39 beta electrons
       nuclear repulsion energy       561.1756842888 Hartrees.
 NAtoms=   17 NActive=   17 NUniq=   17 SFac= 1.00D+00 NAtFMM=   60 NAOKFM=F Big=F
 Integral buffers will be    131072 words long.
 Raffenetti 2 integral format.
 Two-electron integral symmetry is turned off.
 One-electron integrals computed using PRISM.
 NBasis=   245 RedAO= T EigKep=  2.04D-06  NBF=   245
 NBsUse=   244 1.00D-06 EigRej=  5.38D-07 NBFU=   244
 Initial guess from the checkpoint file:  "C:\Users\Administrator\Desktop\dataset_dft\C8H6O3\C8H6O3.chk"
 B after Tr=     0.003514   -0.001757   -0.031706
         Rot=    0.999998    0.000481   -0.001881    0.000364 Ang=   0.23 deg.
 ExpMin= 3.60D-02 ExpMax= 5.48D+03 ExpMxC= 8.25D+02 IAcc=3 IRadAn=         5 AccDes= 0.00D+00
 Harris functional with IExCor=  402 and IRadAn=       5 diagonalized for initial guess.
 HarFok:  IExCor=  402 AccDes= 0.00D+00 IRadAn=         5 IDoV= 1 UseB2=F ITyADJ=14
 ICtDFT=  3500011 ScaDFX=  1.000000  1.000000  1.000000  1.000000
 FoFCou: FMM=F IPFlag=           0 FMFlag=      100000 FMFlg1=           0
         NFxFlg=           0 DoJE=T BraDBF=F KetDBF=T FulRan=T
         wScrn=  0.000000 ICntrl=       500 IOpCl=  0 I1Cent=   200000004 NGrid=           0
         NMat0=    1 NMatS0=      1 NMatT0=    0 NMatD0=    1 NMtDS0=    0 NMtDT0=    0
 Symmetry not used in FoFCou.
 Requested convergence on RMS density matrix=1.00D-08 within 128 cycles.
 Requested convergence on MAX density matrix=1.00D-06.
 Requested convergence on             energy=1.00D-06.
 No special actions if energy rises.
 SCF Done:  E(RB3LYP) =  -534.139021542     A.U. after   14 cycles
            NFock= 14  Conv=0.39D-08     -V/T= 2.0093
 Variable Step   Value    
 -------- ---- -----------
     9       6    3.023562
 ---------------------------------------------------------------------------------------------------
                            Z-MATRIX (ANGSTROMS AND DEGREES)
   CD    Cent   Atom    N1       Length/X        N2       Alpha/Y        N3        Beta/Z          J
 ---------------------------------------------------------------------------------------------------
      1      1  C 
      2      2  C        1   1.416405(     1)
      3      3  C        2   1.401843(     2)      1  120.707(    17)
      4      4  C        3   1.387814(     3)      2  119.979(    18)      1    0.201(    32)      0
      5      5  C        4   1.399832(     4)      3  120.495(    19)      2   -0.482(    33)      0
      6      6  C        5   1.393225(     5)      4  120.358(    20)      3    0.190(    34)      0
      7      7  H        3   1.084756(     6)      2  118.270(    21)      1  179.519(    35)      0
      8      8  H        4   1.085840(     7)      3  119.562(    22)      2  179.722(    36)      0
      9      9  H        5   1.084290(     8)      4  121.250(    23)      3 -178.844(    37)      0
     10     10  C        6   1.600000(     9)      5  116.670(    24)      4 -175.432(    38)      0
     11     11  H       10   1.099244(    10)      6  117.103(    25)      5  156.547(    39)      0
     12     12  O       10   1.218834(    11)      6  121.980(    26)      5  -21.197(    40)      0
     13     13  C        1   1.472578(    12)      2  119.519(    27)      3 -178.107(    41)      0
     14     14  O       13   1.220178(    13)      1  126.195(    28)      2  163.535(    42)      0
     15     15  H       13   1.113681(    14)      1  115.908(    29)      2  -16.954(    43)      0
     16     16  O        2   1.363991(    15)      1  124.490(    30)      6  178.799(    44)      0
     17     17  H       16   0.965333(    16)      2  112.214(    31)      1   -0.873(    45)      0
 ---------------------------------------------------------------------------------------------------
                         Z-Matrix orientation:                         
 ---------------------------------------------------------------------
 Center     Atomic      Atomic             Coordinates (Angstroms)
 Number     Number       Type             X           Y           Z
 ---------------------------------------------------------------------
      1          6           0        0.000000    0.000000    0.000000
      2          6           0        0.000000    0.000000    1.416405
      3          6           0        1.205288    0.000000    2.132257
      4          6           0        2.415384    0.004207    1.452790
      5          6           0        2.444256   -0.001670    0.053268
      6          6           0        1.256849   -0.007847   -0.675499
      7          1           0        1.159177    0.008018    3.216003
      8          1           0        3.344911    0.008756    2.014044
      9          1           0        3.382535   -0.017173   -0.489941
     10          6           0        1.390593   -0.128125   -2.265356
     11          1           0        0.523370   -0.524467   -2.812325
     12          8           0        2.418957    0.164284   -2.850608
     13          6           0       -1.280730    0.042319   -0.725552
     14          8           0       -1.433175    0.326596   -1.902319
     15          1           0       -2.185439   -0.220064   -0.131464
     16          8           0       -1.123825    0.030583    2.188773
     17          1           0       -1.929967    0.066134    1.658925
 ---------------------------------------------------------------------
                    Distance matrix (angstroms):
                    1          2          3          4          5
     1  C    0.000000
     2  C    1.416405   0.000000
     3  C    2.449335   1.401843   0.000000
     4  C    2.818634   2.415662   1.387814   0.000000
     5  C    2.444837   2.798667   2.420174   1.399832   0.000000
     6  C    1.426895   2.440449   2.808240   2.423213   1.393225
     7  H    3.418542   2.140632   1.084756   2.164947   3.413857
     8  H    3.904469   3.397894   2.142905   1.085840   2.157760
     9  H    3.417877   3.882782   3.408317   2.170263   1.084290
    10  C    2.661203   3.937706   4.403380   3.859056   2.549944
    11  H    2.908291   4.293151   5.018861   4.695787   3.489232
    12  O    3.742233   4.907723   5.131172   4.306375   2.908724
    13  C    1.472578   2.496005   3.788027   4.290441   3.805787
    14  O    2.404054   3.629682   4.831766   5.115868   4.355061
    15  H    2.200421   2.687093   4.082877   4.871112   4.638523
    16  O    2.460619   1.363991   2.329999   3.615020   4.158441
    17  H    2.545816   1.946269   3.171473   4.350679   4.660103
                    6          7          8          9         10
     6  C    0.000000
     7  H    3.892760   0.000000
     8  H    3.404985   2.494423   0.000000
     9  H    2.133791   4.321803   2.504402   0.000000
    10  C    1.600000   5.487931   4.706523   2.670626   0.000000
    11  H    2.317523   6.085107   5.615982   3.718284   1.099244
    12  O    2.472089   6.198002   4.954434   2.556199   1.218834
    13  C    2.538568   4.635750   5.376157   4.669592   3.088043
    14  O    2.975428   5.746217   6.186197   5.030314   2.883094
    15  H    3.491468   4.737511   5.936357   5.583189   4.165327
    16  O    3.724666   2.503559   4.472205   5.242621   5.117299
    17  H    3.951051   3.459867   5.287130   5.731252   5.144301
                   11         12         13         14         15
    11  H    0.000000
    12  O    2.017199   0.000000
    13  C    2.816140   4.268304   0.000000
    14  O    2.319588   3.970456   1.220178   0.000000
    15  H    3.823261   5.361150   1.113681   2.000167   0.000000
    16  O    5.294556   6.161537   2.918570   4.113437   2.563854
    17  H    5.134175   6.265673   2.471398   3.605150   1.831029
                   16         17
    16  O    0.000000
    17  H    0.965333   0.000000
 Symmetry turned off by external request.
 Stoichiometry    C8H6O3
 Framework group  C1[X(C8H6O3)]
 Deg. of freedom    45
 Full point group                 C1      NOp   1
 Rotational constants (GHZ):           1.5387400           1.0411220           0.6238876
 Standard basis: 6-31++G(d,p) (6D, 7F)
   245 basis functions,   400 primitive gaussians,   245 cartesian basis functions
    39 alpha electrons       39 beta electrons
       nuclear repulsion energy       557.4331210262 Hartrees.
 NAtoms=   17 NActive=   17 NUniq=   17 SFac= 1.00D+00 NAtFMM=   60 NAOKFM=F Big=F
 Integral buffers will be    131072 words long.
 Raffenetti 2 integral format.
 Two-electron integral symmetry is turned off.
 One-electron integrals computed using PRISM.
 NBasis=   245 RedAO= T EigKep=  2.13D-06  NBF=   245
 NBsUse=   244 1.00D-06 EigRej=  5.41D-07 NBFU=   244
 Initial guess from the checkpoint file:  "C:\Users\Administrator\Desktop\dataset_dft\C8H6O3\C8H6O3.chk"
 B after Tr=     0.003641   -0.001745   -0.031777
         Rot=    0.999998    0.000465   -0.001848    0.000356 Ang=   0.22 deg.
 ExpMin= 3.60D-02 ExpMax= 5.48D+03 ExpMxC= 8.25D+02 IAcc=3 IRadAn=         5 AccDes= 0.00D+00
 Harris functional with IExCor=  402 and IRadAn=       5 diagonalized for initial guess.
 HarFok:  IExCor=  402 AccDes= 0.00D+00 IRadAn=         5 IDoV= 1 UseB2=F ITyADJ=14
 ICtDFT=  3500011 ScaDFX=  1.000000  1.000000  1.000000  1.000000
 FoFCou: FMM=F IPFlag=           0 FMFlag=      100000 FMFlg1=           0
         NFxFlg=           0 DoJE=T BraDBF=F KetDBF=T FulRan=T
         wScrn=  0.000000 ICntrl=       500 IOpCl=  0 I1Cent=   200000004 NGrid=           0
         NMat0=    1 NMatS0=      1 NMatT0=    0 NMatD0=    1 NMtDS0=    0 NMtDT0=    0
 Symmetry not used in FoFCou.
 Requested convergence on RMS density matrix=1.00D-08 within 128 cycles.
 Requested convergence on MAX density matrix=1.00D-06.
 Requested convergence on             energy=1.00D-06.
 No special actions if energy rises.
 SCF Done:  E(RB3LYP) =  -534.134962523     A.U. after   13 cycles
            NFock= 13  Conv=0.95D-08     -V/T= 2.0097
 Variable Step   Value    
 -------- ---- -----------
     9       7    3.212534
 ---------------------------------------------------------------------------------------------------
                            Z-MATRIX (ANGSTROMS AND DEGREES)
   CD    Cent   Atom    N1       Length/X        N2       Alpha/Y        N3        Beta/Z          J
 ---------------------------------------------------------------------------------------------------
      1      1  C 
      2      2  C        1   1.416405(     1)
      3      3  C        2   1.401843(     2)      1  120.707(    17)
      4      4  C        3   1.387814(     3)      2  119.979(    18)      1    0.201(    32)      0
      5      5  C        4   1.399832(     4)      3  120.495(    19)      2   -0.482(    33)      0
      6      6  C        5   1.393225(     5)      4  120.358(    20)      3    0.190(    34)      0
      7      7  H        3   1.084756(     6)      2  118.270(    21)      1  179.519(    35)      0
      8      8  H        4   1.085840(     7)      3  119.562(    22)      2  179.722(    36)      0
      9      9  H        5   1.084290(     8)      4  121.250(    23)      3 -178.844(    37)      0
     10     10  C        6   1.700000(     9)      5  116.670(    24)      4 -175.432(    38)      0
     11     11  H       10   1.099244(    10)      6  117.103(    25)      5  156.547(    39)      0
     12     12  O       10   1.218834(    11)      6  121.980(    26)      5  -21.197(    40)      0
     13     13  C        1   1.472578(    12)      2  119.519(    27)      3 -178.107(    41)      0
     14     14  O       13   1.220178(    13)      1  126.195(    28)      2  163.535(    42)      0
     15     15  H       13   1.113681(    14)      1  115.908(    29)      2  -16.954(    43)      0
     16     16  O        2   1.363991(    15)      1  124.490(    30)      6  178.799(    44)      0
     17     17  H       16   0.965333(    16)      2  112.214(    31)      1   -0.873(    45)      0
 ---------------------------------------------------------------------------------------------------
                         Z-Matrix orientation:                         
 ---------------------------------------------------------------------
 Center     Atomic      Atomic             Coordinates (Angstroms)
 Number     Number       Type             X           Y           Z
 ---------------------------------------------------------------------
      1          6           0        0.000000    0.000000    0.000000
      2          6           0        0.000000    0.000000    1.416405
      3          6           0        1.205288    0.000000    2.132257
      4          6           0        2.415384    0.004207    1.452790
      5          6           0        2.444256   -0.001670    0.053268
      6          6           0        1.256849   -0.007847   -0.675499
      7          1           0        1.159177    0.008018    3.216003
      8          1           0        3.344911    0.008756    2.014044
      9          1           0        3.382535   -0.017173   -0.489941
     10          6           0        1.398952   -0.135643   -2.364722
     11          1           0        0.531729   -0.531985   -2.911691
     12          8           0        2.427316    0.156767   -2.949974
     13          6           0       -1.280730    0.042319   -0.725552
     14          8           0       -1.433175    0.326596   -1.902319
     15          1           0       -2.185439   -0.220064   -0.131464
     16          8           0       -1.123825    0.030583    2.188773
     17          1           0       -1.929967    0.066134    1.658925
 ---------------------------------------------------------------------
                    Distance matrix (angstroms):
                    1          2          3          4          5
     1  C    0.000000
     2  C    1.416405   0.000000
     3  C    2.449335   1.401843   0.000000
     4  C    2.818634   2.415662   1.387814   0.000000
     5  C    2.444837   2.798667   2.420174   1.399832   0.000000
     6  C    1.426895   2.440449   2.808240   2.423213   1.393225
     7  H    3.418542   2.140632   1.084756   2.164947   3.413857
[...]
 FoFCou: FMM=F IPFlag=           0 FMFlag=      100000 FMFlg1=           0
         NFxFlg=           0 DoJE=T BraDBF=F KetDBF=T FulRan=T
         wScrn=  0.000000 ICntrl=       500 IOpCl=  0 I1Cent=   200000004 NGrid=           0
         NMat0=    1 NMatS0=      1 NMatT0=    0 NMatD0=    1 NMtDS0=    0 NMtDT0=    0
 Symmetry not used in FoFCou.
 Requested convergence on RMS density matrix=1.00D-08 within 128 cycles.
 Requested convergence on MAX density matrix=1.00D-06.
 Requested convergence on             energy=1.00D-06.
 No special actions if energy rises.
 SCF Done:  E(RB3LYP) =  -533.994492160     A.U. after   12 cycles
            NFock= 12  Conv=0.92D-08     -V/T= 2.0102
 Variable Step   Value    
 -------- ---- -----------
     9      19    5.480206
 ---------------------------------------------------------------------------------------------------
                            Z-MATRIX (ANGSTROMS AND DEGREES)
   CD    Cent   Atom    N1       Length/X        N2       Alpha/Y        N3        Beta/Z          J
 ---------------------------------------------------------------------------------------------------
      1      1  C 
      2      2  C        1   1.416405(     1)
      3      3  C        2   1.401843(     2)      1  120.707(    17)
      4      4  C        3   1.387814(     3)      2  119.979(    18)      1    0.201(    32)      0
      5      5  C        4   1.399832(     4)      3  120.495(    19)      2   -0.482(    33)      0
      6      6  C        5   1.393225(     5)      4  120.358(    20)      3    0.190(    34)      0
      7      7  H        3   1.084756(     6)      2  118.270(    21)      1  179.519(    35)      0
      8      8  H        4   1.085840(     7)      3  119.562(    22)      2  179.722(    36)      0
      9      9  H        5   1.084290(     8)      4  121.250(    23)      3 -178.844(    37)      0
     10     10  C        6   2.900000(     9)      5  116.670(    24)      4 -175.432(    38)      0
     11     11  H       10   1.099244(    10)      6  117.103(    25)      5  156.547(    39)      0
     12     12  O       10   1.218834(    11)      6  121.980(    26)      5  -21.197(    40)      0
     13     13  C        1   1.472578(    12)      2  119.519(    27)      3 -178.107(    41)      0
     14     14  O       13   1.220178(    13)      1  126.195(    28)      2  163.535(    42)      0
     15     15  H       13   1.113681(    14)      1  115.908(    29)      2  -16.954(    43)      0
     16     16  O        2   1.363991(    15)      1  124.490(    30)      6  178.799(    44)      0
     17     17  H       16   0.965333(    16)      2  112.214(    31)      1   -0.873(    45)      0
 ---------------------------------------------------------------------------------------------------
                         Z-Matrix orientation:                         
 ---------------------------------------------------------------------
 Center     Atomic      Atomic             Coordinates (Angstroms)
 Number     Number       Type             X           Y           Z
 ---------------------------------------------------------------------
      1          6           0        0.000000    0.000000    0.000000
      2          6           0        0.000000    0.000000    1.416405
      3          6           0        1.205288    0.000000    2.132257
      4          6           0        2.415384    0.004207    1.452790
      5          6           0        2.444256   -0.001670    0.053268
      6          6           0        1.256849   -0.007847   -0.675499
      7          1           0        1.159177    0.008018    3.216003
      8          1           0        3.344911    0.008756    2.014044
      9          1           0        3.382535   -0.017173   -0.489941
     10          6           0        1.499260   -0.225852   -3.557115
     11          1           0        0.632038   -0.622194   -4.104084
     12          8           0        2.527624    0.066558   -4.142367
     13          6           0       -1.280730    0.042319   -0.725552
     14          8           0       -1.433175    0.326596   -1.902319
     15          1           0       -2.185439   -0.220064   -0.131464
     16          8           0       -1.123825    0.030583    2.188773
     17          1           0       -1.929967    0.066134    1.658925
 ---------------------------------------------------------------------
                    Distance matrix (angstroms):
                    1          2          3          4          5
     1  C    0.000000
     2  C    1.416405   0.000000
     3  C    2.449335   1.401843   0.000000
     4  C    2.818634   2.415662   1.387814   0.000000
     5  C    2.444837   2.798667   2.420174   1.399832   0.000000
     6  C    1.426895   2.440449   2.808240   2.423213   1.393225
     7  H    3.418542   2.140632   1.084756   2.164947   3.413857
     8  H    3.904469   3.397894   2.142905   1.085840   2.157760
     9  H    3.417877   3.882782   3.408317   2.170263   1.084290
    10  C    3.866763   5.199490   5.701437   5.098171   3.738735
    11  H    4.198821   5.591279   6.293464   5.869544   4.577418
    12  O    4.853093   6.106821   6.412792   5.596629   4.197017
    13  C    1.472578   2.496005   3.788027   4.290441   3.805787
    14  O    2.404054   3.629682   4.831766   5.115868   4.355061
    15  H    2.200421   2.687093   4.082877   4.871112   4.638523
    16  O    2.460619   1.363991   2.329999   3.615020   4.158441
    17  H    2.545816   1.946269   3.171473   4.350679   4.660103
                    6          7          8          9         10
     6  C    0.000000
     7  H    3.892760   0.000000
     8  H    3.404985   2.494423   0.000000
     9  H    2.133791   4.321803   2.504402   0.000000
    10  C    2.900000   6.785682   5.873608   3.605250   0.000000
    11  H    3.538786   7.366051   6.722296   4.581846   1.099244
    12  O    3.693180   7.484763   6.210691   3.752079   1.218834
    13  C    2.538568   4.635750   5.376157   4.669592   3.977185
    14  O    2.975428   5.746217   6.186197   5.030314   3.412144
    15  H    3.491468   4.737511   5.936357   5.583189   5.031115
    16  O    3.724666   2.503559   4.472205   5.242621   6.321516
    17  H    3.951051   3.459867   5.287130   5.731252   6.249154
                   11         12         13         14         15
    11  H    0.000000
    12  O    2.017199   0.000000
    13  C    3.938874   5.116519   0.000000
    14  O    3.164344   4.557780   1.220178   0.000000
    15  H    4.886879   6.195357   1.113681   2.000167   0.000000
    16  O    6.565761   7.308742   2.918570   4.113437   2.563854
    17  H    6.344284   7.316085   2.471398   3.605150   1.831029
                   16         17
    16  O    0.000000
    17  H    0.965333   0.000000
 Symmetry turned off by external request.
 Stoichiometry    C8H6O3
 Framework group  C1[X(C8H6O3)]
 Deg. of freedom    45
 Full point group                 C1      NOp   1
 Rotational constants (GHZ):           1.5666810           0.6974573           0.4847491
 Standard basis: 6-31++G(d,p) (6D, 7F)
   245 basis functions,   400 primitive gaussians,   245 cartesian basis functions
    39 alpha electrons       39 beta electrons
       nuclear repulsion energy       522.1485632102 Hartrees.
 NAtoms=   17 NActive=   17 NUniq=   17 SFac= 1.00D+00 NAtFMM=   60 NAOKFM=F Big=F
 Integral buffers will be    131072 words long.
 Raffenetti 2 integral format.
 Two-electron integral symmetry is turned off.
 One-electron integrals computed using PRISM.
 NBasis=   245 RedAO= T EigKep=  3.04D-06  NBF=   245
 NBsUse=   244 1.00D-06 EigRej=  6.57D-07 NBFU=   244
 Initial guess from the checkpoint file:  "C:\Users\Administrator\Desktop\dataset_dft\C8H6O3\C8H6O3.chk"
 B after Tr=     0.004880   -0.001704   -0.032651
         Rot=    0.999999    0.000302   -0.001440    0.000267 Ang=   0.17 deg.
 ExpMin= 3.60D-02 ExpMax= 5.48D+03 ExpMxC= 8.25D+02 IAcc=3 IRadAn=         5 AccDes= 0.00D+00
 Harris functional with IExCor=  402 and IRadAn=       5 diagonalized for initial guess.
 HarFok:  IExCor=  402 AccDes= 0.00D+00 IRadAn=         5 IDoV= 1 UseB2=F ITyADJ=14
 ICtDFT=  3500011 ScaDFX=  1.000000  1.000000  1.000000  1.000000
 FoFCou: FMM=F IPFlag=           0 FMFlag=      100000 FMFlg1=           0
         NFxFlg=           0 DoJE=T BraDBF=F KetDBF=T FulRan=T
         wScrn=  0.000000 ICntrl=       500 IOpCl=  0 I1Cent=   200000004 NGrid=           0
         NMat0=    1 NMatS0=      1 NMatT0=    0 NMatD0=    1 NMtDS0=    0 NMtDT0=    0
 Symmetry not used in FoFCou.
 Requested convergence on RMS density matrix=1.00D-08 within 128 cycles.
 Requested convergence on MAX density matrix=1.00D-06.
 Requested convergence on             energy=1.00D-06.
 No special actions if energy rises.
 SCF Done:  E(RB3LYP) =  -533.986765716     A.U. after   13 cycles
            NFock= 13  Conv=0.48D-08     -V/T= 2.0102
 Variable Step   Value    
 -------- ---- -----------
     9      20    5.669178
 ---------------------------------------------------------------------------------------------------
                            Z-MATRIX (ANGSTROMS AND DEGREES)
   CD    Cent   Atom    N1       Length/X        N2       Alpha/Y        N3        Beta/Z          J
 ---------------------------------------------------------------------------------------------------
      1      1  C 
      2      2  C        1   1.416405(     1)
      3      3  C        2   1.401843(     2)      1  120.707(    17)
      4      4  C        3   1.387814(     3)      2  119.979(    18)      1    0.201(    32)      0
      5      5  C        4   1.399832(     4)      3  120.495(    19)      2   -0.482(    33)      0
      6      6  C        5   1.393225(     5)      4  120.358(    20)      3    0.190(    34)      0
      7      7  H        3   1.084756(     6)      2  118.270(    21)      1  179.519(    35)      0
      8      8  H        4   1.085840(     7)      3  119.562(    22)      2  179.722(    36)      0
      9      9  H        5   1.084290(     8)      4  121.250(    23)      3 -178.844(    37)      0
     10     10  C        6   3.000000(     9)      5  116.670(    24)      4 -175.432(    38)      0
     11     11  H       10   1.099244(    10)      6  117.103(    25)      5  156.547(    39)      0
     12     12  O       10   1.218834(    11)      6  121.980(    26)      5  -21.197(    40)      0
     13     13  C        1   1.472578(    12)      2  119.519(    27)      3 -178.107(    41)      0
     14     14  O       13   1.220178(    13)      1  126.195(    28)      2  163.535(    42)      0
     15     15  H       13   1.113681(    14)      1  115.908(    29)      2  -16.954(    43)      0
     16     16  O        2   1.363991(    15)      1  124.490(    30)      6  178.799(    44)      0
     17     17  H       16   0.965333(    16)      2  112.214(    31)      1   -0.873(    45)      0
 ---------------------------------------------------------------------------------------------------
                         Z-Matrix orientation:                         
 ---------------------------------------------------------------------
 Center     Atomic      Atomic             Coordinates (Angstroms)
 Number     Number       Type             X           Y           Z
 ---------------------------------------------------------------------
      1          6           0        0.000000    0.000000    0.000000
      2          6           0        0.000000    0.000000    1.416405
      3          6           0        1.205288    0.000000    2.132257
      4          6           0        2.415384    0.004207    1.452790
      5          6           0        2.444256   -0.001670    0.053268
      6          6           0        1.256849   -0.007847   -0.675499
      7          1           0        1.159177    0.008018    3.216003
      8          1           0        3.344911    0.008756    2.014044
      9          1           0        3.382535   -0.017173   -0.489941
     10          6           0        1.507619   -0.233369   -3.656481
     11          1           0        0.640397   -0.629711   -4.203450
     12          8           0        2.535983    0.059041   -4.241733
     13          6           0       -1.280730    0.042319   -0.725552
     14          8           0       -1.433175    0.326596   -1.902319
     15          1           0       -2.185439   -0.220064   -0.131464
     16          8           0       -1.123825    0.030583    2.188773
     17          1           0       -1.929967    0.066134    1.658925
 ---------------------------------------------------------------------
                    Distance matrix (angstroms):
                    1          2          3          4          5
     1  C    0.000000
     2  C    1.416405   0.000000
     3  C    2.449335   1.401843   0.000000
     4  C    2.818634   2.415662   1.387814   0.000000
     5  C    2.444837   2.798667   2.420174   1.399832   0.000000
     6  C    1.426895   2.440449   2.808240   2.423213   1.393225
     7  H    3.418542   2.140632   1.084756   2.164947   3.413857
     8  H    3.904469   3.397894   2.142905   1.085840   2.157760
     9  H    3.417877   3.882782   3.408317   2.170263   1.084290
    10  C    3.961973   5.297316   5.801323   5.194721   3.833172
    11  H    4.298329   5.691170   6.391934   5.962003   4.665618
    12  O    4.942367   6.200744   6.511680   5.696063   4.296409
    13  C    1.472578   2.496005   3.788027   4.290441   3.805787
    14  O    2.404054   3.629682   4.831766   5.115868   4.355061
    15  H    2.200421   2.687093   4.082877   4.871112   4.638523
    16  O    2.460619   1.363991   2.329999   3.615020   4.158441
    17  H    2.545816   1.946269   3.171473   4.350679   4.660103
                    6          7          8          9         10
     6  C    0.000000
     7  H    3.892760   0.000000
     8  H    3.404985   2.494423   0.000000
     9  H    2.133791   4.321803   2.504402   0.000000
    10  C    3.000000   6.885544   5.965661   3.686329   0.000000
    11  H    3.634992   7.464859   6.810232   4.656681   1.099244
    12  O    3.789285   7.583932   6.308061   3.846869   1.218834
    13  C    2.538568   4.635750   5.376157   4.669592   4.054779
    14  O    2.975428   5.746217   6.186197   5.030314   3.469714
    15  H    3.491468   4.737511   5.936357   5.583189   5.105350
    16  O    3.724666   2.503559   4.472205   5.242621   6.415697
    17  H    3.951051   3.459867   5.287130   5.731252   6.337211
                   11         12         13         14         15
    11  H    0.000000
    12  O    2.017199   0.000000
    13  C    4.029655   5.189518   0.000000
    14  O    3.241824   4.615047   1.220178   0.000000
    15  H    4.973351   6.266102   1.113681   2.000167   0.000000
    16  O    6.664007   7.399082   2.918570   4.113437   2.563854
    17  H    6.438821   7.400170   2.471398   3.605150   1.831029
                   16         17
    16  O    0.000000
    17  H    0.965333   0.000000
 Symmetry turned off by external request.
 Stoichiometry    C8H6O3
 Framework group  C1[X(C8H6O3)]
 Deg. of freedom    45
 Full point group                 C1      NOp   1
 Rotational constants (GHZ):           1.5684183           0.6772856           0.4751059
 Standard basis: 6-31++G(d,p) (6D, 7F)
   245 basis functions,   400 primitive gaussians,   245 cartesian basis functions
    39 alpha electrons       39 beta electrons
       nuclear repulsion energy       520.1290795722 Hartrees.
 NAtoms=   17 NActive=   17 NUniq=   17 SFac= 1.00D+00 NAtFMM=   60 NAOKFM=F Big=F
 Integral buffers will be    131072 words long.
 Raffenetti 2 integral format.
 Two-electron integral symmetry is turned off.
 One-electron integrals computed using PRISM.
 NBasis=   245 RedAO= T EigKep=  3.13D-06  NBF=   245
 NBsUse=   244 1.00D-06 EigRej=  6.70D-07 NBFU=   244
 Initial guess from the checkpoint file:  "C:\Users\Administrator\Desktop\dataset_dft\C8H6O3\C8H6O3.chk"
 B after Tr=     0.004947   -0.001707   -0.032712
         Rot=    0.999999    0.000292   -0.001412    0.000262 Ang=   0.17 deg.
 ExpMin= 3.60D-02 ExpMax= 5.48D+03 ExpMxC= 8.25D+02 IAcc=3 IRadAn=         5 AccDes= 0.00D+00
 Harris functional with IExCor=  402 and IRadAn=       5 diagonalized for initial guess.
 HarFok:  IExCor=  402 AccDes= 0.00D+00 IRadAn=         5 IDoV= 1 UseB2=F ITyADJ=14
 ICtDFT=  3500011 ScaDFX=  1.000000  1.000000  1.000000  1.000000
 FoFCou: FMM=F IPFlag=           0 FMFlag=      100000 FMFlg1=           0
         NFxFlg=           0 DoJE=T BraDBF=F KetDBF=T FulRan=T
         wScrn=  0.000000 ICntrl=       500 IOpCl=  0 I1Cent=   200000004 NGrid=           0
         NMat0=    1 NMatS0=      1 NMatT0=    0 NMatD0=    1 NMtDS0=    0 NMtDT0=    0
 Symmetry not used in FoFCou.
 Requested convergence on RMS density matrix=1.00D-08 within 128 cycles.
 Requested convergence on MAX density matrix=1.00D-06.
 Requested convergence on             energy=1.00D-06.
 No special actions if energy rises.
 SCF Done:  E(RB3LYP) =  -533.979719042     A.U. after   13 cycles
            NFock= 13  Conv=0.51D-08     -V/T= 2.0102
 Scan completed.
 
 Summary of the potential surface scan:
   N      B9          SCF    
 ----  ---------  -----------
    1     1.0000   -533.76673
    2     1.1000   -533.95184
    3     1.2000   -534.05515
    4     1.3000   -534.10890
    5     1.4000   -534.13282
    6     1.5000   -534.13902
    7     1.6000   -534.13496
    8     1.7000   -534.12520
    9     1.8000   -534.11253
   10     1.9000   -534.09860
   11     2.0000   -534.08442
   12     2.1000   -534.07053
   13     2.2000   -534.05726
   14     2.3000   -534.04474
   15     2.4000   -534.03304
   16     2.5000   -534.02219
   17     2.6000   -534.01216
   18     2.7000   -534.00294
   19     2.8000   -533.99449
   20     2.9000   -533.98677
   21     3.0000   -533.97972
 ----  ---------  -----------
  
 1|1|UNPC-BF-202112021916|Scan|RB3LYP|6-31++G(d,p)|C8H6O3|ADMINISTRATOR
 |21-Mar-2023|1||# scan b3lyp/6-31++g(d,p) nosymm||Title Card Required|
 |0,1|C|C,1,B1|C,2,B2,1,A1|C,3,B3,2,A2,1,D1,0|C,4,B4,3,A3,2,D2,0|C,5,B5
 ,4,A4,3,D3,0|H,3,B6,2,A5,1,D4,0|H,4,B7,3,A6,2,D5,0|H,5,B8,4,A7,3,D6,0|
 C,6,B9,5,A8,4,D7,0|H,10,B10,6,A9,5,D8,0|O,10,B11,6,A10,5,D9,0|C,1,B12,
 2,A11,3,D10,0|O,13,B13,1,A12,2,D11,0|H,13,B14,1,A13,2,D12,0|O,2,B15,1,
 A14,6,D13,0|H,16,B16,2,A15,1,D14,0||B1=1.41640543|B2=1.40184266|B3=1.3
 8781378|B4=1.39983165|B5=1.39322488|B6=1.08475603|B7=1.08583956|B8=1.0
 8428977|B9=1.,s,20,0.1|B10=1.09924387|B11=1.21883362|B12=1.47257773|B1
 3=1.22017785|B14=1.11368052|B15=1.36399058|B16=0.96533297|A1=120.70717
 149|A2=119.97851826|A3=120.49469346|A4=120.35813845|A5=118.26996991|A6
 =119.56241157|A7=121.25035101|A8=116.67023011|A9=117.10293634|A10=121.
 97992104|A11=119.51879521|A12=126.19501193|A13=115.90757059|A14=124.48
 955885|A15=112.21443445|D1=0.20052181|D2=-0.4816753|D3=0.18978724|D4=1
 79.51915901|D5=179.72238218|D6=-178.84449407|D7=-175.4323131|D8=156.54
 726604|D9=-21.1966001|D10=-178.10748664|D11=163.53528247|D12=-16.95409
 935|D13=178.79889123|D14=-0.8725374||Version=EM64W-G16RevA.03|HF=-533.
 7667346,-533.9518363,-534.0551495,-534.1089047,-534.1328191,-534.13902
 15,-534.1349625,-534.1252048,-534.1125262,-534.0986003,-534.0844154,-5
 34.070534,-534.0572589,-534.0447406,-534.0330445,-534.0221886,-534.012
 1638,-534.0029439,-533.9944922,-533.9867657,-533.979719|RMSD=6.371e-00
 9,5.210e-009,1.720e-009,8.420e-009,5.283e-009,3.935e-009,9.506e-009,8.
 073e-009,6.810e-009,6.099e-009,4.723e-009,4.358e-009,8.147e-009,9.331e
 -009,9.552e-009,8.143e-009,5.715e-009,9.354e-009,9.202e-009,4.753e-009
 ,5.143e-009|PG=C01 [X(C8H6O3)]||@


 THE CAUTIOUS SELDOM ERR...CONFUCIUS                   
 Job cpu time:       0 days  0 hours 17 minutes 15.0 seconds.
 Elapsed time:       0 days  0 hours 16 minutes 52.1 seconds.
 File lengths (MBytes):  RWF=     42 Int=      0 D2E=      0 Chk=      7 Scr=      1
 Normal termination of Gaussian 16 at Tue Mar 21 16:53:31 2023.
