 Entering Link 1 = I:\G16W\l1.exe PID=     20784.
  
 Copyright (c) 1988,1990,1992,1993,1995,1998,2003,2009,2016,
            Gaussian, Inc.  All Rights Reserved.
  
 This is part of the Gaussian(R) 16 program.  It is based on
 the Gaussian(R) 09 system (copyright 2009, Gaussian, Inc.),
 the Gaussian(R) 03 system (copyright 2003, Gaussian, Inc.),
 the Gaussian(R) 98 system (copyright 1998, Gaussian, Inc.),
 the Gaussian(R) 94 system (copyright 1995, Gaussian, Inc.),
 the Gaussian 92(TM) system (copyright 1992, Gaussian, Inc.),
 the Gaussian 90(TM) system (copyright 1990, Gaussian, Inc.),
 the Gaussian 88(TM) system (copyright 1988, Gaussian, Inc.),
 the Gaussian 86(TM) system (copyright 1986, Carnegie Mellon
 University), and the Gaussian 82(TM) system (copyright 1983,
 Carnegie Mellon University). Gaussian is a federally registered
 trademark of Gaussian, Inc.
  
 This software contains proprietary and confidential information,
 including trade secrets, belonging to Gaussian, Inc.
  
 This software is provided under written license and may be
 used, copied, transmitted, or stored only in accord with that
 written license.
  
 The following legend is applicable only to US Government
 contracts under FAR:
  
                    RESTRICTED RIGHTS LEGEND
  
 Use, reproduction and disclosure by the US Government is
 subject to restrictions as set forth in subparagraphs (a)
 and (c) of the Commercial Computer Software - Restricted
 Rights clause in FAR 52.227-19.
  
 Gaussian, Inc.
 340 Quinnipiac St., Bldg. 40, Wallingford CT 06492
  
  
 ---------------------------------------------------------------
 Warning -- This program may not be used in any manner that
 competes with the business of Gaussian, Inc. or will provide
 assistance to any competitor of Gaussian, Inc.  The licensee
 of this program is prohibited from giving any competitor of
 Gaussian, Inc. access to this program.  By using this program,
 the user acknowledges that Gaussian, Inc. is engaged in the
 business of creating and licensing software in the field of
 computational chemistry and represents and warrants to the
 licensee that it is not a competitor of Gaussian, Inc. and that
 it will not use this program in any manner prohibited above.
 ---------------------------------------------------------------
  

 Cite this work as:
 Gaussian 16, Revision A.03,
 M. J. Frisch, G. W. Trucks, H. B. Schlegel, G. E. Scuseria, 
 M. A. Robb, J. R. Cheeseman, G. Scalmani, V. Barone, 
 G. A. Petersson, H. Nakatsuji, X. Li, M. Caricato, A. V. Marenich, 
 J. Bloino, B. G. Janesko, R. Gomperts, B. Mennucci, H. P. Hratchian, 
 J. V. Ortiz, A. F. Izmaylov, J. L. Sonnenberg, D. Williams-Young, 
 F. Ding, F. Lipparini, F. Egidi, J. Goings, B. Peng, A. Petrone, 
 T. Henderson, D. Ranasinghe, V. G. Zakrzewski, J. Gao, N. Rega, 
 G. Zheng, W. Liang, M. Hada, M. Ehara, K. Toyota, R. Fukuda, 
 J. Hasegawa, M. Ishida, T. Nakajima, Y. Honda, O. Kitao, H. Nakai, 
 T. Vreven, K. Throssell, J. A. Montgomery, Jr., J. E. Peralta, 
 F. Ogliaro, M. J. Bearpark, J. J. Heyd, E. N. Brothers, K. N. Kudin, 
 V. N. Staroverov, T. A. Keith, R. Kobayashi, J. Normand, 
 K. Raghavachari, A. P. Rendell, J. C. Burant, S. S. Iyengar, 
 J. Tomasi, M. Cossi, J. M. Millam, M. Klene, C. Adamo, R. Cammi, 
 J. W. Ochterski, R. L. Martin, K. Morokuma, O. Farkas, 
 J. B. Foresman, and D. J. Fox, Gaussian, Inc., Wallingford CT, 2016.
 
 ******************************************
 Gaussian 16:  EM64W-G16RevA.03 17-Dec-2016
                22-Mar-2023 
 ******************************************
 %nprocshared=32
 Will use up to   32 processors via shared memory.
 %mem=600MW
 %chk=C:\Users\Administrator\Desktop\dataset_dft\C12H8O1\C12H8O1.chk
 --------------------------------
 # scan b3lyp/6-31++g(d,p) nosymm
 --------------------------------
 1/38=1,60=1,172=1/1,8;
 2/12=2,15=1,17=6,18=5,29=3,40=1/2;
 3/5=1,6=6,7=1111,11=2,25=1,30=1,74=-5/1,2,3;
 4//1;
 5/5=2,38=5/2;
 6/7=2,8=2,9=2,10=2,18=1,28=1/1;
 1/60=1/8(1);
 99/9=1/99;
 2/15=1,29=3/2;
 3/5=1,6=6,7=1111,11=2,25=1,30=1,74=-5/1,2,3;
 4/5=5,16=3,69=1/1;
 5/5=2,38=5/2;
 1/60=1/8(-4);
 99/9=1/99;
 -------------------
 Title Card Required
 -------------------
 Symbolic Z-matrix:
 Charge =  0 Multiplicity = 1
 C(PDBName=C,ResName=MOL,ResNum=1)
 C(PDBName=C,ResName=MOL,ResNum=1) 1    B1
 C(PDBName=C,ResName=MOL,ResNum=1) 2    B2       1    A1
 C(PDBName=C,ResName=MOL,ResNum=1) 3    B3       2    A2       1    D1       0
 C(PDBName=C,ResName=MOL,ResNum=1) 4    B4       3    A3       2    D2       0
 C(PDBName=C,ResName=MOL,ResNum=1) 1    B5       2    A4       3    D3       0
 H(PDBName=H,ResName=MOL,ResNum=1) 1    B6       6    A5       5    D4       0
 H(PDBName=H,ResName=MOL,ResNum=1) 2    B7       1    A6       6    D5       0
 H(PDBName=H,ResName=MOL,ResNum=1) 3    B8       2    A7       1    D6       0
 H(PDBName=H,ResName=MOL,ResNum=1) 6    B9       1    A8       2    D7       0
 C(PDBName=C,ResName=MOL,ResNum=1) 4    B10      3    A9       2    D8       0
 H(PDBName=H,ResName=MOL,ResNum=1) 11   B11      4    A10      3    D9       0
 H(PDBName=H,ResName=MOL,ResNum=1) 11   B12      4    A11      3    D10      0
 C(PDBName=C,ResName=MOL,ResNum=1) 11   B13      4    A12      3    D11      0
 C(PDBName=C,ResName=MOL,ResNum=1) 14   B14      11   A13      4    D12      0
 C(PDBName=C,ResName=MOL,ResNum=1) 15   B15      14   A14      11   D13      0
 C(PDBName=C,ResName=MOL,ResNum=1) 16   B16      15   A15      14   D14      0
 C(PDBName=C,ResName=MOL,ResNum=1) 17   B17      16   A16      15   D15      0
 C(PDBName=C,ResName=MOL,ResNum=1) 18   B18      17   A17      16   D16      0
 H(PDBName=H,ResName=MOL,ResNum=1) 15   B19      14   A18      11   D17      0
 H(PDBName=H,ResName=MOL,ResNum=1) 16   B20      15   A19      14   D18      0
 H(PDBName=H,ResName=MOL,ResNum=1) 17   B21      16   A20      15   D19      0
 H(PDBName=H,ResName=MOL,ResNum=1) 18   B22      17   A21      16   D20      0
 O(PDBName=O,ResName=MOL,ResNum=1) 5    B23      4    A22      3    D21      0
       Variables:
  B1                    1.39972                  
  B2                    1.39482                  
  B3                    1.40136                  
  B4                    1.3992                   
  B5                    1.39281                  
  B6                    1.08588                  
  B7                    1.08557                  
  B8                    1.08771                  
  B9                    1.08513                  
  B10                   1.51267                  
  B11                   1.09752                  
  B12                   1.10089                  
  B13                   1.51266                  
  B14                   1.40136                  
  B15                   1.39482                  
  B16                   1.39972                  
  B17                   1.39281                  
  B18                   1.3982                   
  B19                   1.08771                  
  B20                   1.08557                  
  B21                   1.08588                  
  B22                   1.08513                  
  B23                   1.     Scan 20    0.1    
  A1                  119.52782                  
  A2                  121.55709                  
  A3                  117.74803                  
  A4                  120.02058                  
  A5                  119.64897                  
  A6                  120.38232                  
  A7                  119.77035                  
  A8                  121.62601                  
  A9                  121.74198                  
  A10                 109.94999                  
  A11                 109.38256                  
  A12                 112.16388                  
  A13                 121.74204                  
  A14                 121.55707                  
  A15                 119.52782                  
  A16                 120.02058                  
  A17                 119.57728                  
  A18                 118.67165                  
  A19                 120.08986                  
  A20                 120.32954                  
  A21                 121.62599                  
  A22                 122.55232                  
  D1                    0.14527                  
  D2                   -0.685                    
  D3                    0.37402                  
  D4                 -179.99291                  
  D5                 -179.63401                  
  D6                  179.79138                  
  D7                  179.44108                  
  D8                  177.80901                  
  D9                   45.37782                  
  D10                 -70.40478                  
  D11                 168.04847                  
  D12                -168.0442                   
  D13                -177.81139                  
  D14                  -0.15417                  
  D15                  -0.36977                  
  D16                   0.33522                  
  D17                   1.84071                  
  D18                 179.85794                  
  D19                 179.98899                  
  D20                -179.42853                  
  D21                -179.52758                  
 
 Center=      3.62365450     -0.21751521      0.72704299
 Residue   1 PDB Number     1_0 MOL charge    0.00000000 layers R        AvRTP=      0.00000000      0.00000000      0.00000000
 Scan the potential surface.
 Variable   Value     No. Steps Step-Size
 -------- ----------- --------- ---------
    23       1.000000      20      0.1000
 A total of     21 points will be computed.
 ---------------------------------------------------------------------------------------------------
                            Z-MATRIX (ANGSTROMS AND DEGREES)
   CD    Cent   Atom    N1       Length/X        N2       Alpha/Y        N3        Beta/Z          J
 ---------------------------------------------------------------------------------------------------
      1      1  C 
      2      2  C        1   1.399724(     1)
      3      3  C        2   1.394823(     2)      1  119.528(    24)
      4      4  C        3   1.401359(     3)      2  121.557(    25)      1    0.145(    46)      0
      5      5  C        4   1.399198(     4)      3  117.748(    26)      2   -0.685(    47)      0
      6      6  C        1   1.392808(     5)      2  120.021(    27)      3    0.374(    48)      0
      7      7  H        1   1.085876(     6)      6  119.649(    28)      5 -179.993(    49)      0
      8      8  H        2   1.085565(     7)      1  120.382(    29)      6 -179.634(    50)      0
      9      9  H        3   1.087713(     8)      2  119.770(    30)      1  179.791(    51)      0
     10     10  H        6   1.085134(     9)      1  121.626(    31)      2  179.441(    52)      0
     11     11  C        4   1.512665(    10)      3  121.742(    32)      2  177.809(    53)      0
     12     12  H       11   1.097522(    11)      4  109.950(    33)      3   45.378(    54)      0
     13     13  H       11   1.100893(    12)      4  109.383(    34)      3  -70.405(    55)      0
     14     14  C       11   1.512665(    13)      4  112.164(    35)      3  168.048(    56)      0
     15     15  C       14   1.401359(    14)     11  121.742(    36)      4 -168.044(    57)      0
     16     16  C       15   1.394823(    15)     14  121.557(    37)     11 -177.811(    58)      0
     17     17  C       16   1.399724(    16)     15  119.528(    38)     14   -0.154(    59)      0
     18     18  C       17   1.392808(    17)     16  120.021(    39)     15   -0.370(    60)      0
     19     19  C       18   1.398198(    18)     17  119.577(    40)     16    0.335(    61)      0
     20     20  H       15   1.087712(    19)     14  118.672(    41)     11    1.841(    62)      0
     21     21  H       16   1.085565(    20)     15  120.090(    42)     14  179.858(    63)      0
     22     22  H       17   1.085876(    21)     16  120.330(    43)     15  179.989(    64)      0
     23     23  H       18   1.085134(    22)     17  121.626(    44)     16 -179.429(    65)      0
     24     24  O        5   1.000000(    23)      4  122.552(    45)      3 -179.528(    66)      0
 ---------------------------------------------------------------------------------------------------
                         Z-Matrix orientation:                         
 ---------------------------------------------------------------------
 Center     Atomic      Atomic             Coordinates (Angstroms)
 Number     Number       Type             X           Y           Z
 ---------------------------------------------------------------------
      1          6           0        0.000000    0.000000    0.000000
      2          6           0        0.000000    0.000000    1.399724
      3          6           0        1.213659    0.000000    2.087157
      4          6           0        2.440319    0.003028    1.409585
      5          6           0        2.411880   -0.008726    0.010726
      6          6           0        1.205931   -0.007872   -0.696837
      7          1           0       -0.937257    0.000555   -0.548338
      8          1           0       -0.936484    0.000131    1.948768
      9          1           0        1.218266    0.003438    3.174854
     10          1           0        1.236295   -0.017084   -1.781507
     11          6           0        3.758396    0.052222    2.150130
     12          1           0        3.743924   -0.656648    2.987894
     13          1           0        3.886703    1.047911    2.601910
     14          6           0        4.933268   -0.243215    1.244290
     15          6           0        6.213682   -0.493969    1.755631
     16          6           0        7.303568   -0.721553    0.915462
     17          6           0        7.120513   -0.703620   -0.472125
     18          6           0        5.855587   -0.467441   -1.005132
     19          6           0        4.775698   -0.242273   -0.146007
     20          1           0        6.352085   -0.503815    2.834457
     21          1           0        8.285683   -0.911185    1.337293
     22          1           0        7.959938   -0.878973   -1.138265
     23          1           0        5.682385   -0.456862   -2.076301
     24          8           0        3.243669   -0.014413   -0.544337
 ---------------------------------------------------------------------
                    Distance matrix (angstroms):
                    1          2          3          4          5
     1  C    0.000000
     2  C    1.399724   0.000000
     3  C    2.414372   1.394823   0.000000
     4  C    2.818172   2.440340   1.401359   0.000000
     5  C    2.411919   2.783263   2.397369   1.399198   0.000000
     6  C    1.392808   2.418657   2.784016   2.441484   1.398198
     7  H    1.085876   2.161804   3.401805   3.904035   3.395490
     8  H    2.162105   1.085565   2.154592   3.419579   3.868801
     9  H    3.400571   2.152968   1.087713   2.146995   3.381800
    10  H    2.168521   3.413055   3.868768   3.410739   2.143400
    11  C    4.330280   3.832933   2.546052   1.512665   2.528611
    12  H    4.834838   4.119519   2.764915   2.150725   3.325308
    13  H    4.793174   4.201170   2.916891   2.146031   3.163198
    14  C    5.093579   4.941705   3.821659   2.510529   2.816747
    15  C    6.475808   6.243438   5.035290   3.821652   4.211158
    16  C    7.396000   7.355084   6.243437   4.941697   5.025464
    17  C    7.170752   7.395986   6.475796   5.093565   4.784062
    18  C    5.959588   6.347420   5.597165   4.209069   3.619601
    19  C    4.784068   5.025462   4.211157   2.816742   2.380493
    20  H    6.974021   6.531560   5.216868   4.193932   4.872760
    21  H    8.442225   8.335868   7.169804   5.916866   6.088989
    22  H    8.088811   8.400869   7.529159   6.142936   5.732230
    23  H    6.067063   6.676898   6.124755   4.782666   3.905472
    24  O    3.289057   3.781662   3.323538   2.112696   1.000000
                    6          7          8          9         10
     6  C    0.000000
     7  H    2.148343   0.000000
     8  H    3.404296   2.497106   0.000000
     9  H    3.871728   4.302145   2.479163   0.000000
    10  H    1.085134   2.499069   4.316968   4.956436   0.000000
    11  C    3.824122   5.416047   4.699485   2.739471   4.671570
    12  H    4.521013   5.903415   4.839149   2.617177   5.426272
    13  H    4.379835   5.855904   4.978712   2.922285   5.231942
    14  C    4.209085   6.142964   5.916883   4.193943   4.782697
    15  C    5.597183   7.529193   7.169819   5.216875   6.124797
    16  C    6.347442   8.400914   8.335887   6.531567   6.676954
    17  C    5.959601   8.088840   8.442227   6.974017   6.067111
    18  C    4.682473   6.824252   7.421346   6.260891   4.705682
    19  C    3.619612   5.732250   6.088995   4.872763   3.905501
    20  H    6.260902   8.051845   7.359460   5.170037   6.907629
    21  H    7.421358   9.457775   9.287237   7.359453   7.760167
    22  H    6.824242   8.960004   9.457744   8.051819   6.809111
    23  H    4.705651   6.809079   7.760119   6.907595   4.477502
    24  O    2.043447   4.180954   4.867182   4.234968   2.357996
                   11         12         13         14         15
    11  C    0.000000
    12  H    1.097522   0.000000
    13  H    1.100893   1.753537   0.000000
    14  C    1.512665   2.150726   2.146029   0.000000
    15  C    2.546052   2.764895   2.916918   1.401359   0.000000
    16  C    3.832934   4.119497   4.201200   2.440340   1.394823
    17  C    4.330283   4.834800   4.793233   2.818172   2.414372
    18  C    3.824126   4.520971   4.379903   2.441484   2.784016
    19  C    2.528612   3.325297   3.163216   1.399198   2.397369
    20  H    2.739471   2.617138   2.922335   2.146995   1.087712
    21  H    4.699488   4.839096   4.978789   3.419579   2.154592
    22  H    5.416052   5.903338   5.856026   3.904034   3.401804
    23  H    4.671576   5.426197   5.232062   3.410739   3.868767
    24  O    2.744000   3.624827   3.382439   2.471089   3.786925
                   16         17         18         19         20
    16  C    0.000000
    17  C    1.399724   0.000000
    18  C    2.418657   1.392808   0.000000
    19  C    2.783264   2.411919   1.398198   0.000000
    20  H    2.152968   3.400571   3.871727   3.381800   0.000000
    21  H    1.085565   2.162105   3.404296   3.868801   2.479163
    22  H    2.161804   1.085876   2.148342   3.395490   4.302145
    23  H    3.413055   2.168521   1.085134   2.143400   4.956435
    24  O    4.371938   3.938292   2.690666   1.599281   4.617143
                   21         22         23         24
    21  H    0.000000
    22  H    2.497106   0.000000
    23  H    4.316966   2.499067   0.000000
    24  O    5.455881   4.831502   2.913763   0.000000
 Symmetry turned off by external request.
 Stoichiometry    C13H10O
 Framework group  C1[X(C13H10O)]
 Deg. of freedom    66
 Full point group                 C1      NOp   1
 Rotational constants (GHZ):           2.1323323           0.4584465           0.3799796
 Standard basis: 6-31++G(d,p) (6D, 7F)
   326 basis functions,   528 primitive gaussians,   326 cartesian basis functions
    48 alpha electrons       48 beta electrons
       nuclear repulsion energy       811.3536588081 Hartrees.
 NAtoms=   24 NActive=   24 NUniq=   24 SFac= 1.00D+00 NAtFMM=   60 NAOKFM=F Big=F
 Integral buffers will be    131072 words long.
 Raffenetti 2 integral format.
 Two-electron integral symmetry is turned off.
 One-electron integrals computed using PRISM.
 NBasis=   326 RedAO= T EigKep=  1.65D-06  NBF=   326
 NBsUse=   323 1.00D-06 EigRej=  7.19D-07 NBFU=   323
 ExpMin= 3.60D-02 ExpMax= 5.48D+03 ExpMxC= 8.25D+02 IAcc=3 IRadAn=         5 AccDes= 0.00D+00
 Harris functional with IExCor=  402 and IRadAn=       5 diagonalized for initial guess.
 HarFok:  IExCor=  402 AccDes= 0.00D+00 IRadAn=         5 IDoV= 1 UseB2=F ITyADJ=14
 ICtDFT=  3500011 ScaDFX=  1.000000  1.000000  1.000000  1.000000
 FoFCou: FMM=F IPFlag=           0 FMFlag=      100000 FMFlg1=           0
         NFxFlg=           0 DoJE=T BraDBF=F KetDBF=T FulRan=T
         wScrn=  0.000000 ICntrl=       500 IOpCl=  0 I1Cent=   200000004 NGrid=           0
         NMat0=    1 NMatS0=      1 NMatT0=    0 NMatD0=    1 NMtDS0=    0 NMtDT0=    0
 Symmetry not used in FoFCou.
 Requested convergence on RMS density matrix=1.00D-08 within 128 cycles.
 Requested convergence on MAX density matrix=1.00D-06.
 Requested convergence on             energy=1.00D-06.
 No special actions if energy rises.
 SCF Done:  E(RB3LYP) =  -576.416711762     A.U. after   16 cycles
            NFock= 16  Conv=0.45D-08     -V/T= 2.0066

 **********************************************************************

            Population analysis using the SCF density.

 **********************************************************************

 Alpha  occ. eigenvalues --  -19.21369 -10.29262 -10.24107 -10.23644 -10.23387
 Alpha  occ. eigenvalues --  -10.22690 -10.22312 -10.22100 -10.20845 -10.17559
 Alpha  occ. eigenvalues --  -10.17388 -10.16769 -10.15796 -10.15606  -1.24826
 Alpha  occ. eigenvalues --   -0.89799  -0.83458  -0.81325  -0.78866  -0.75145
 Alpha  occ. eigenvalues --   -0.72272  -0.67821  -0.66977  -0.63515  -0.61849
 Alpha  occ. eigenvalues --   -0.58600  -0.54997  -0.54263  -0.52043  -0.49699
 Alpha  occ. eigenvalues --   -0.48438  -0.47073  -0.46393  -0.44401  -0.43504
 Alpha  occ. eigenvalues --   -0.41977  -0.40801  -0.39268  -0.38934  -0.38560
 Alpha  occ. eigenvalues --   -0.35823  -0.33995  -0.32295  -0.28860  -0.28356
 Alpha  occ. eigenvalues --   -0.27616  -0.23121  -0.17903
 Alpha virt. eigenvalues --   -0.04471  -0.03989  -0.01648  -0.00708   0.00102
 Alpha virt. eigenvalues --    0.00304   0.00869   0.01805   0.01929   0.03094
 Alpha virt. eigenvalues --    0.03723   0.04030   0.04267   0.05256   0.05661
 Alpha virt. eigenvalues --    0.06247   0.06577   0.07104   0.07545   0.08897
 Alpha virt. eigenvalues --    0.09375   0.09423   0.10147   0.10486   0.10745
 Alpha virt. eigenvalues --    0.11295   0.11586   0.12023   0.12361   0.12932
 Alpha virt. eigenvalues --    0.13185   0.13307   0.13434   0.13871   0.14080
 Alpha virt. eigenvalues --    0.14761   0.14963   0.15206   0.15653   0.16318
 Alpha virt. eigenvalues --    0.16684   0.16865   0.17742   0.17801   0.18040
 Alpha virt. eigenvalues --    0.18694   0.18720   0.19633   0.20104   0.20266
 Alpha virt. eigenvalues --    0.21239   0.21620   0.22012   0.22720   0.23277
 Alpha virt. eigenvalues --    0.23549   0.24127   0.24358   0.25318   0.25905
 Alpha virt. eigenvalues --    0.26557   0.27287   0.27508   0.27701   0.27819
 Alpha virt. eigenvalues --    0.28309   0.29302   0.29590   0.30465   0.30818
 Alpha virt. eigenvalues --    0.31339   0.31778   0.32526   0.32683   0.33691
 Alpha virt. eigenvalues --    0.34254   0.34593   0.35002   0.36194   0.37165
 Alpha virt. eigenvalues --    0.37452   0.37972   0.38987   0.40130   0.40963
 Alpha virt. eigenvalues --    0.42131   0.43249   0.44419   0.46948   0.47892
 Alpha virt. eigenvalues --    0.54738   0.59588   0.59989   0.60808   0.63849
 Alpha virt. eigenvalues --    0.65707   0.66982   0.68245   0.70240   0.70523
 Alpha virt. eigenvalues --    0.70706   0.71786   0.72650   0.72909   0.73358
 Alpha virt. eigenvalues --    0.73818   0.74979   0.76009   0.76594   0.77354
 Alpha virt. eigenvalues --    0.78184   0.79493   0.79892   0.80608   0.81418
 Alpha virt. eigenvalues --    0.82211   0.84634   0.86570   0.88807   0.90886
 Alpha virt. eigenvalues --    0.92175   0.93113   0.95550   0.97078   0.97784
 Alpha virt. eigenvalues --    0.98567   0.99855   1.01059   1.01692   1.03441
 Alpha virt. eigenvalues --    1.04021   1.04835   1.05879   1.08694   1.09368
 Alpha virt. eigenvalues --    1.11388   1.11686   1.13716   1.15027   1.15539
 Alpha virt. eigenvalues --    1.15642   1.16591   1.18555   1.20268   1.21782
 Alpha virt. eigenvalues --    1.22467   1.23067   1.24170   1.25835   1.26536
 Alpha virt. eigenvalues --    1.30889   1.32645   1.34058   1.35780   1.36926
 Alpha virt. eigenvalues --    1.37709   1.38609   1.39084   1.39976   1.41780
 Alpha virt. eigenvalues --    1.42032   1.43336   1.45542   1.46598   1.52049
 Alpha virt. eigenvalues --    1.54281   1.55920   1.60942   1.67348   1.69750
 Alpha virt. eigenvalues --    1.72607   1.75438   1.79861   1.81092   1.82396
 Alpha virt. eigenvalues --    1.83277   1.83707   1.84638   1.88813   1.90378
 Alpha virt. eigenvalues --    1.91915   1.94703   1.95335   1.96903   1.97695
 Alpha virt. eigenvalues --    1.97951   1.99699   2.00310   2.01704   2.03344
 Alpha virt. eigenvalues --    2.03679   2.04809   2.05815   2.10254   2.12175
 Alpha virt. eigenvalues --    2.13035   2.13560   2.17876   2.21005   2.22489
 Alpha virt. eigenvalues --    2.25713   2.26387   2.27961   2.30367   2.32525
 Alpha virt. eigenvalues --    2.34578   2.35103   2.36154   2.37401   2.39064
 Alpha virt. eigenvalues --    2.39753   2.42377   2.44357   2.44685   2.46962
 Alpha virt. eigenvalues --    2.48297   2.49784   2.50194   2.52528   2.53428
 Alpha virt. eigenvalues --    2.54698   2.56865   2.58328   2.59083   2.61068
 Alpha virt. eigenvalues --    2.61335   2.64111   2.66431   2.67848   2.69295
 Alpha virt. eigenvalues --    2.69844   2.71943   2.72152   2.75359   2.78271
 Alpha virt. eigenvalues --    2.78507   2.82867   2.85930   2.89845   2.91074
 Alpha virt. eigenvalues --    2.94237   3.00134   3.04857   3.08802   3.11250
 Alpha virt. eigenvalues --    3.17482   3.25201   3.26297   3.27342   3.29545
 Alpha virt. eigenvalues --    3.32142   3.34592   3.35788   3.44397   3.47449
 Alpha virt. eigenvalues --    3.49078   3.52684   3.61926   3.79984   3.88808
 Alpha virt. eigenvalues --    3.95682   4.27360   4.29256   4.33579   4.34899
 Alpha virt. eigenvalues --    4.36212   4.45532   4.47393   4.49532   4.54885
 Alpha virt. eigenvalues --    4.63355   4.65029   4.82121   4.96219   5.44271
          Condensed to atoms (all electrons):
               1          2          3          4          5          6
     1  C    5.515389   0.153939  -0.352618   0.287172  -0.459067   0.472160
     2  C    0.153939   6.053153  -0.115981  -0.501026   1.134660  -0.323367
     3  C   -0.352618  -0.115981  10.638207  -3.774890  -3.733294   2.267125
     4  C    0.287172  -0.501026  -3.774890  14.733230   0.694193  -2.808200
     5  C   -0.459067   1.134660  -3.733294   0.694193  12.483242  -2.150827
     6  C    0.472160  -0.323367   2.267125  -2.808200  -2.150827   9.317772
     7  H    0.340905  -0.069905   0.062897  -0.006734  -0.073501   0.028827
     8  H   -0.069741   0.369834  -0.021650   0.013734   0.046283  -0.007685
     9  H   -0.005929   0.063105   0.134443   0.019308   0.165962  -0.035260
    10  H   -0.057178   0.004357  -0.031601   0.082229   0.115823   0.227723
    11  C    0.143684  -0.522531   2.039431  -5.091478  -2.691423   0.547716
    12  H    0.007771  -0.061042   0.002717  -0.185621  -0.023603   0.010903
    13  H    0.011985   0.017928   0.030561  -0.134283  -0.054073  -0.010814
    14  C   -0.041471  -0.144301   0.416392   2.703575  -0.818901  -0.592840
    15  C    0.001633  -0.029570  -0.314177   0.261796  -0.794701  -0.504897
    16  C    0.000503  -0.002273   0.004801   0.011280   0.096165  -0.000335
    17  C   -0.000674   0.008939  -0.025844  -0.064976   0.056736   0.029600
    18  C    0.025670  -0.010000  -0.511012  -0.533893   0.848345  -0.620221
    19  C   -0.034517   0.222060  -0.811422  -0.672466   1.719612   1.146666
    20  H    0.000260  -0.000464  -0.004687  -0.044967   0.031844   0.007911
    21  H    0.000165  -0.000201  -0.001631   0.003397   0.003776  -0.001374
    22  H   -0.000057   0.000289  -0.000695   0.003673  -0.009715  -0.000117
    23  H   -0.000470  -0.000795   0.004419   0.015901  -0.026906   0.000265
    24  O    0.085414  -0.053735   0.043917   0.211448  -0.074166  -0.524130
               7          8          9         10         11         12
     1  C    0.340905  -0.069741  -0.005929  -0.057178   0.143684   0.007771
     2  C   -0.069905   0.369834   0.063105   0.004357  -0.522531  -0.061042
     3  C    0.062897  -0.021650   0.134443  -0.031601   2.039431   0.002717
     4  C   -0.006734   0.013734   0.019308   0.082229  -5.091478  -0.185621
     5  C   -0.073501   0.046283   0.165962   0.115823  -2.691423  -0.023603
     6  C    0.028827  -0.007685  -0.035260   0.227723   0.547716   0.010903
     7  H    0.638433  -0.012355  -0.004565  -0.011742   0.009953   0.000317
     8  H   -0.012355   0.640167  -0.011440  -0.003493  -0.032743   0.000668
     9  H   -0.004565  -0.011440   0.668855   0.001555  -0.065840  -0.006409
    10  H   -0.011742  -0.003493   0.001555   0.625860  -0.012056  -0.000096
    11  C    0.009953  -0.032743  -0.065840  -0.012056  17.169518   0.457952
    12  H    0.000317   0.000668  -0.006409  -0.000096   0.457952   0.637721
    13  H    0.000222  -0.000851   0.001358  -0.000579   0.705808  -0.089411
    14  C    0.002462   0.005558  -0.061728   0.005224  -5.295738   0.109292
    15  C   -0.000428  -0.002059  -0.004424   0.001396   2.179728  -0.054834
    16  C    0.000129  -0.000023  -0.001359   0.000763  -0.656125   0.024061
    17  C   -0.000110   0.000217   0.000701  -0.000827   0.019504  -0.005547
    18  C   -0.001019  -0.001491   0.008872   0.015763   1.113853  -0.014465
    19  C   -0.006818   0.003948   0.037082  -0.041646  -3.172034   0.017179
    20  H   -0.000023   0.000005   0.000816  -0.000038  -0.022115  -0.003583
    21  H    0.000006  -0.000004  -0.000011   0.000020  -0.033744   0.001193
    22  H   -0.000009   0.000005  -0.000003  -0.000035   0.009510  -0.000148
    23  H   -0.000013   0.000029  -0.000110  -0.000457   0.003992   0.000381
    24  O    0.003384  -0.000855  -0.000202  -0.036880   0.044935   0.010054
              13         14         15         16         17         18
     1  C    0.011985  -0.041471   0.001633   0.000503  -0.000674   0.025670
     2  C    0.017928  -0.144301  -0.029570  -0.002273   0.008939  -0.010000
     3  C    0.030561   0.416392  -0.314177   0.004801  -0.025844  -0.511012
     4  C   -0.134283   2.703575   0.261796   0.011280  -0.064976  -0.533893
     5  C   -0.054073  -0.818901  -0.794701   0.096165   0.056736   0.848345
     6  C   -0.010814  -0.592840  -0.504897  -0.000335   0.029600  -0.620221
     7  H    0.000222   0.002462  -0.000428   0.000129  -0.000110  -0.001019
     8  H   -0.000851   0.005558  -0.002059  -0.000023   0.000217  -0.001491
     9  H    0.001358  -0.061728  -0.004424  -0.001359   0.000701   0.008872
    10  H   -0.000579   0.005224   0.001396   0.000763  -0.000827   0.015763
    11  C    0.705808  -5.295738   2.179728  -0.656125   0.019504   1.113853
    12  H   -0.089411   0.109292  -0.054834   0.024061  -0.005547  -0.014465
    13  H    0.629599  -0.275252   0.057803  -0.045857   0.008073   0.030019
    14  C   -0.275252  14.171034  -3.727148   0.141811  -0.006127  -2.845914
    15  C    0.057803  -3.727148  10.750762  -0.345415  -0.405394   2.922990
    16  C   -0.045857   0.141811  -0.345415   5.890764   0.336831  -0.899453
    17  C    0.008073  -0.006127  -0.405394   0.336831   5.379780   0.716982
    18  C    0.030019  -2.845914   2.922990  -0.899453   0.716982  10.302749
    19  C   -0.083941   1.142393  -4.339097   1.068782  -0.181653  -4.235936
    20  H    0.000672  -0.010749   0.232414  -0.024830  -0.001925  -0.009923
    21  H   -0.000740   0.010546  -0.014358   0.355600  -0.054292  -0.006520
    22  H    0.000306   0.047900   0.002395  -0.069551   0.368060  -0.032679
    23  H   -0.000039   0.084993   0.005790  -0.015278  -0.053471   0.282764
    24  O    0.010125   0.163927   0.033333   0.004594   0.011059  -0.304146
              19         20         21         22         23         24
     1  C   -0.034517   0.000260   0.000165  -0.000057  -0.000470   0.085414
     2  C    0.222060  -0.000464  -0.000201   0.000289  -0.000795  -0.053735
     3  C   -0.811422  -0.004687  -0.001631  -0.000695   0.004419   0.043917
     4  C   -0.672466  -0.044967   0.003397   0.003673   0.015901   0.211448
     5  C    1.719612   0.031844   0.003776  -0.009715  -0.026906  -0.074166
     6  C    1.146666   0.007911  -0.001374  -0.000117   0.000265  -0.524130
     7  H   -0.006818  -0.000023   0.000006  -0.000009  -0.000013   0.003384
     8  H    0.003948   0.000005  -0.000004   0.000005   0.000029  -0.000855
     9  H    0.037082   0.000816  -0.000011  -0.000003  -0.000110  -0.000202
    10  H   -0.041646  -0.000038   0.000020  -0.000035  -0.000457  -0.036880
    11  C   -3.172034  -0.022115  -0.033744   0.009510   0.003992   0.044935
    12  H    0.017179  -0.003583   0.001193  -0.000148   0.000381   0.010054
    13  H   -0.083941   0.000672  -0.000740   0.000306  -0.000039   0.010125
    14  C    1.142393  -0.010749   0.010546   0.047900   0.084993   0.163927
    15  C   -4.339097   0.232414  -0.014358   0.002395   0.005790   0.033333
    16  C    1.068782  -0.024830   0.355600  -0.069551  -0.015278   0.004594
    17  C   -0.181653  -0.001925  -0.054292   0.368060  -0.053471   0.011059
    18  C   -4.235936  -0.009923  -0.006520  -0.032679   0.282764  -0.304146
    19  C   14.774751   0.120545   0.039149  -0.010490  -0.025476  -0.129455
    20  H    0.120545   0.627652  -0.012156  -0.004017   0.001381  -0.002949
    21  H    0.039149  -0.012156   0.611142  -0.011582  -0.002968   0.000431
    22  H   -0.010490  -0.004017  -0.011582   0.603551  -0.015507  -0.000225
    23  H   -0.025476   0.001381  -0.002968  -0.015507   0.606650  -0.010478
    24  O   -0.129455  -0.002949   0.000431  -0.000225  -0.010478   8.666048
 Mulliken charges:
               1
     1  C   -0.024928
     2  C   -0.193074
     3  C    0.054590
     4  C    0.777600
     5  C   -0.486463
     6  C   -0.476600
     7  H    0.099688
     8  H    0.083940
     9  H    0.095224
    10  H    0.115913
    11  C   -0.849755
    12  H    0.164551
    13  H    0.191380
    14  C    0.815063
    15  C    0.086464
    16  C    0.124414
    17  C   -0.135642
    18  C   -0.241333
    19  C   -0.547214
    20  H    0.118927
    21  H    0.114159
    22  H    0.119141
    23  H    0.145405
    24  O   -0.151450
 Sum of Mulliken charges =   0.00000
 Mulliken charges with hydrogens summed into heavy atoms:
               1
     1  C    0.074761
     2  C   -0.109134
     3  C    0.149815
     4  C    0.777600
     5  C   -0.486463
     6  C   -0.360687
    11  C   -0.493824
    14  C    0.815063
    15  C    0.205391
    16  C    0.238572
    17  C   -0.016501
    18  C   -0.095928
    19  C   -0.547214
    24  O   -0.151450
 Electronic spatial extent (au):  <R**2>=           7383.6092
 Charge=              0.0000 electrons
 Dipole moment (field-independent basis, Debye):
    X=              4.5377    Y=             -0.3553    Z=              0.0675  Tot=              4.5521
 Quadrupole moment (field-independent basis, Debye-Ang):
   XX=            -44.0125   YY=            -86.7420   ZZ=            -73.8424
   XY=             -3.7446   XZ=              2.7508   YZ=              0.3223
 Traceless Quadrupole moment (field-independent basis, Debye-Ang):
   XX=             24.1865   YY=            -18.5431   ZZ=             -5.6434
   XY=             -3.7446   XZ=              2.7508   YZ=              0.3223
 Octapole moment (field-independent basis, Debye-Ang**2):
  XXX=           -598.3109  YYY=             55.2343  ZZZ=           -137.7806  XYY=           -305.5525
  XXY=            -18.4327  XXZ=            -36.1276  XZZ=           -252.8496  YZZ=             13.7388
  YYZ=            -52.9216  XYZ=              0.8925
 Hexadecapole moment (field-independent basis, Debye-Ang**3):
 XXXX=          -7226.8781 YYYY=           -179.4232 ZZZZ=           -882.4735 XXXY=             14.8246
 XXXZ=           -387.5342 YYYX=            360.8098 YYYZ=             16.0286 ZZZX=           -416.3401
 ZZZY=              9.9123 XXYY=          -1681.9100 XXZZ=          -1494.8324 YYZZ=           -196.5338
 XXYZ=              3.8473 YYXZ=           -159.0068 ZZXY=             89.1577
 N-N= 8.113536588081D+02 E-N=-2.960164836071D+03  KE= 5.726456400692D+02
 Variable Step   Value    
 -------- ---- -----------
    23       1    2.078699
 ---------------------------------------------------------------------------------------------------
                            Z-MATRIX (ANGSTROMS AND DEGREES)
   CD    Cent   Atom    N1       Length/X        N2       Alpha/Y        N3        Beta/Z          J
 ---------------------------------------------------------------------------------------------------
      1      1  C 
      2      2  C        1   1.399724(     1)
      3      3  C        2   1.394823(     2)      1  119.528(    24)
      4      4  C        3   1.401359(     3)      2  121.557(    25)      1    0.145(    46)      0
      5      5  C        4   1.399198(     4)      3  117.748(    26)      2   -0.685(    47)      0
      6      6  C        1   1.392808(     5)      2  120.021(    27)      3    0.374(    48)      0
      7      7  H        1   1.085876(     6)      6  119.649(    28)      5 -179.993(    49)      0
      8      8  H        2   1.085565(     7)      1  120.382(    29)      6 -179.634(    50)      0
      9      9  H        3   1.087713(     8)      2  119.770(    30)      1  179.791(    51)      0
     10     10  H        6   1.085134(     9)      1  121.626(    31)      2  179.441(    52)      0
     11     11  C        4   1.512665(    10)      3  121.742(    32)      2  177.809(    53)      0
     12     12  H       11   1.097522(    11)      4  109.950(    33)      3   45.378(    54)      0
     13     13  H       11   1.100893(    12)      4  109.383(    34)      3  -70.405(    55)      0
     14     14  C       11   1.512665(    13)      4  112.164(    35)      3  168.048(    56)      0
     15     15  C       14   1.401359(    14)     11  121.742(    36)      4 -168.044(    57)      0
     16     16  C       15   1.394823(    15)     14  121.557(    37)     11 -177.811(    58)      0
     17     17  C       16   1.399724(    16)     15  119.528(    38)     14   -0.154(    59)      0
     18     18  C       17   1.392808(    17)     16  120.021(    39)     15   -0.370(    60)      0
     19     19  C       18   1.398198(    18)     17  119.577(    40)     16    0.335(    61)      0
     20     20  H       15   1.087712(    19)     14  118.672(    41)     11    1.841(    62)      0
     21     21  H       16   1.085565(    20)     15  120.090(    42)     14  179.858(    63)      0
     22     22  H       17   1.085876(    21)     16  120.330(    43)     15  179.989(    64)      0
     23     23  H       18   1.085134(    22)     17  121.626(    44)     16 -179.429(    65)      0
     24     24  O        5   1.100000(    23)      4  122.552(    45)      3 -179.528(    66)      0
 ---------------------------------------------------------------------------------------------------
                         Z-Matrix orientation:                         
 ---------------------------------------------------------------------
 Center     Atomic      Atomic             Coordinates (Angstroms)
 Number     Number       Type             X           Y           Z
 ---------------------------------------------------------------------
      1          6           0        0.000000    0.000000    0.000000
      2          6           0        0.000000    0.000000    1.399724
      3          6           0        1.213659    0.000000    2.087157
      4          6           0        2.440319    0.003028    1.409585
      5          6           0        2.411880   -0.008726    0.010726
      6          6           0        1.205931   -0.007872   -0.696837
      7          1           0       -0.937257    0.000555   -0.548338
      8          1           0       -0.936484    0.000131    1.948768
      9          1           0        1.218266    0.003438    3.174854
     10          1           0        1.236295   -0.017084   -1.781507
     11          6           0        3.758396    0.052222    2.150130
     12          1           0        3.743924   -0.656648    2.987894
     13          1           0        3.886703    1.047911    2.601910
     14          6           0        4.933268   -0.243215    1.244290
     15          6           0        6.213682   -0.493969    1.755631
     16          6           0        7.303568   -0.721553    0.915462
     17          6           0        7.120513   -0.703620   -0.472125
     18          6           0        5.855587   -0.467441   -1.005132
     19          6           0        4.775698   -0.242273   -0.146007
     20          1           0        6.352085   -0.503815    2.834457
     21          1           0        8.285683   -0.911185    1.337293
     22          1           0        7.959938   -0.878973   -1.138265
     23          1           0        5.682385   -0.456862   -2.076301
     24          8           0        3.326848   -0.014981   -0.599843
 ---------------------------------------------------------------------
                    Distance matrix (angstroms):
                    1          2          3          4          5
     1  C    0.000000
     2  C    1.399724   0.000000
     3  C    2.414372   1.394823   0.000000
     4  C    2.818172   2.440340   1.401359   0.000000
     5  C    2.411919   2.783263   2.397369   1.399198   0.000000
     6  C    1.392808   2.418657   2.784016   2.441484   1.398198
     7  H    1.085876   2.161804   3.401805   3.904035   3.395490
     8  H    2.162105   1.085565   2.154592   3.419579   3.868801
     9  H    3.400571   2.152968   1.087713   2.146995   3.381800
    10  H    2.168521   3.413055   3.868768   3.410739   2.143400
    11  C    4.330280   3.832933   2.546052   1.512665   2.528611
    12  H    4.834838   4.119519   2.764915   2.150725   3.325308
    13  H    4.793174   4.201170   2.916891   2.146031   3.163198
    14  C    5.093579   4.941705   3.821659   2.510529   2.816747
    15  C    6.475808   6.243438   5.035290   3.821652   4.211158
    16  C    7.396000   7.355084   6.243437   4.941697   5.025464
    17  C    7.170752   7.395986   6.475796   5.093565   4.784062
    18  C    5.959588   6.347420   5.597165   4.209069   3.619601
    19  C    4.784068   5.025462   4.211157   2.816742   2.380493
    20  H    6.974021   6.531560   5.216868   4.193932   4.872760
    21  H    8.442225   8.335868   7.169804   5.916866   6.088989
    22  H    8.088811   8.400869   7.529159   6.142936   5.732230
    23  H    6.067063   6.676898   6.124755   4.782666   3.905472
    24  O    3.380525   3.881547   3.418444   2.196374   1.100000
                    6          7          8          9         10
     6  C    0.000000
     7  H    2.148343   0.000000
     8  H    3.404296   2.497106   0.000000
     9  H    3.871728   4.302145   2.479163   0.000000
    10  H    1.085134   2.499069   4.316968   4.956436   0.000000
    11  C    3.824122   5.416047   4.699485   2.739471   4.671570
    12  H    4.521013   5.903415   4.839149   2.617177   5.426272
    13  H    4.379835   5.855904   4.978712   2.922285   5.231942
    14  C    4.209085   6.142964   5.916883   4.193943   4.782697
    15  C    5.597183   7.529193   7.169819   5.216875   6.124797
    16  C    6.347442   8.400914   8.335887   6.531567   6.676954
    17  C    5.959601   8.088840   8.442227   6.974017   6.067111
    18  C    4.682473   6.824252   7.421346   6.260891   4.705682
    19  C    3.619612   5.732250   6.088995   4.872763   3.905501
    20  H    6.260902   8.051845   7.359460   5.170037   6.907629
    21  H    7.421358   9.457775   9.287237   7.359453   7.760167
    22  H    6.824242   8.960004   9.457744   8.051819   6.809111
    23  H    4.705651   6.809079   7.760119   6.907595   4.477502
    24  O    2.123145   4.264444   4.967056   4.323748   2.401404
                   11         12         13         14         15
    11  C    0.000000
    12  H    1.097522   0.000000
    13  H    1.100893   1.753537   0.000000
    14  C    1.512665   2.150726   2.146029   0.000000
    15  C    2.546052   2.764895   2.916918   1.401359   0.000000
    16  C    3.832934   4.119497   4.201200   2.440340   1.394823
    17  C    4.330283   4.834800   4.793233   2.818172   2.414372
    18  C    3.824126   4.520971   4.379903   2.441484   2.784016
    19  C    2.528612   3.325297   3.163216   1.399198   2.397369
    20  H    2.739471   2.617138   2.922335   2.146995   1.087712
    21  H    4.699488   4.839096   4.978789   3.419579   2.154592
    22  H    5.416052   5.903338   5.856026   3.904034   3.401804
    23  H    4.671576   5.426197   5.232062   3.410739   3.868767
    24  O    2.784439   3.668453   3.419708   2.456319   3.756527
                   16         17         18         19         20
    16  C    0.000000
    17  C    1.399724   0.000000
    18  C    2.418657   1.392808   0.000000
    19  C    2.783264   2.411919   1.398198   0.000000
    20  H    2.152968   3.400571   3.871727   3.381800   0.000000
    21  H    1.085565   2.162105   3.404296   3.868801   2.479163
    22  H    2.161804   1.085876   2.148342   3.395490   4.302145
    23  H    3.413055   2.168521   1.085134   2.143400   4.956435
    24  O    4.313896   3.857775   2.600674   1.535185   4.602764
                   21         22         23         24
    21  H    0.000000
    22  H    2.497106   0.000000
    23  H    4.316966   2.499067   0.000000
    24  O    5.398678   4.743617   2.814914   0.000000
 Symmetry turned off by external request.
 Stoichiometry    C13H10O
 Framework group  C1[X(C13H10O)]
 Deg. of freedom    66
 Full point group                 C1      NOp   1
 Rotational constants (GHZ):           2.1152586           0.4587296           0.3796574
 Standard basis: 6-31++G(d,p) (6D, 7F)
   326 basis functions,   528 primitive gaussians,   326 cartesian basis functions
    48 alpha electrons       48 beta electrons
       nuclear repulsion energy       808.6706097998 Hartrees.
 NAtoms=   24 NActive=   24 NUniq=   24 SFac= 1.00D+00 NAtFMM=   60 NAOKFM=F Big=F
 Integral buffers will be    131072 words long.
 Raffenetti 2 integral format.
 Two-electron integral symmetry is turned off.
 One-electron integrals computed using PRISM.
 NBasis=   326 RedAO= T EigKep=  1.66D-06  NBF=   326
 NBsUse=   323 1.00D-06 EigRej=  7.20D-07 NBFU=   323
 Initial guess from the checkpoint file:  "C:\Users\Administrator\Desktop\dataset_dft\C12H8O1\C12H8O1.chk"
 B after Tr=     0.014584    0.001301   -0.017255
         Rot=    1.000000    0.000034    0.000623    0.000108 Ang=   0.07 deg.
 ExpMin= 3.60D-02 ExpMax= 5.48D+03 ExpMxC= 8.25D+02 IAcc=3 IRadAn=         5 AccDes= 0.00D+00
 Harris functional with IExCor=  402 and IRadAn=       5 diagonalized for initial guess.
 HarFok:  IExCor=  402 AccDes= 0.00D+00 IRadAn=         5 IDoV= 1 UseB2=F ITyADJ=14
 ICtDFT=  3500011 ScaDFX=  1.000000  1.000000  1.000000  1.000000
 FoFCou: FMM=F IPFlag=           0 FMFlag=      100000 FMFlg1=           0
         NFxFlg=           0 DoJE=T BraDBF=F KetDBF=T FulRan=T
         wScrn=  0.000000 ICntrl=       500 IOpCl=  0 I1Cent=   200000004 NGrid=           0
         NMat0=    1 NMatS0=      1 NMatT0=    0 NMatD0=    1 NMtDS0=    0 NMtDT0=    0
 Symmetry not used in FoFCou.
 Requested convergence on RMS density matrix=1.00D-08 within 128 cycles.
 Requested convergence on MAX density matrix=1.00D-06.
 Requested convergence on             energy=1.00D-06.
 No special actions if energy rises.
 SCF Done:  E(RB3LYP) =  -576.559387578     A.U. after   14 cycles
            NFock= 14  Conv=0.52D-08     -V/T= 2.0081
 Variable Step   Value    
 -------- ---- -----------
    23       2    2.267671
 ---------------------------------------------------------------------------------------------------
                            Z-MATRIX (ANGSTROMS AND DEGREES)
   CD    Cent   Atom    N1       Length/X        N2       Alpha/Y        N3        Beta/Z          J
 ---------------------------------------------------------------------------------------------------
      1      1  C 
      2      2  C        1   1.399724(     1)
      3      3  C        2   1.394823(     2)      1  119.528(    24)
      4      4  C        3   1.401359(     3)      2  121.557(    25)      1    0.145(    46)      0
      5      5  C        4   1.399198(     4)      3  117.748(    26)      2   -0.685(    47)      0
      6      6  C        1   1.392808(     5)      2  120.021(    27)      3    0.374(    48)      0
      7      7  H        1   1.085876(     6)      6  119.649(    28)      5 -179.993(    49)      0
      8      8  H        2   1.085565(     7)      1  120.382(    29)      6 -179.634(    50)      0
      9      9  H        3   1.087713(     8)      2  119.770(    30)      1  179.791(    51)      0
     10     10  H        6   1.085134(     9)      1  121.626(    31)      2  179.441(    52)      0
     11     11  C        4   1.512665(    10)      3  121.742(    32)      2  177.809(    53)      0
     12     12  H       11   1.097522(    11)      4  109.950(    33)      3   45.378(    54)      0
     13     13  H       11   1.100893(    12)      4  109.383(    34)      3  -70.405(    55)      0
     14     14  C       11   1.512665(    13)      4  112.164(    35)      3  168.048(    56)      0
     15     15  C       14   1.401359(    14)     11  121.742(    36)      4 -168.044(    57)      0
     16     16  C       15   1.394823(    15)     14  121.557(    37)     11 -177.811(    58)      0
     17     17  C       16   1.399724(    16)     15  119.528(    38)     14   -0.154(    59)      0
     18     18  C       17   1.392808(    17)     16  120.021(    39)     15   -0.370(    60)      0
     19     19  C       18   1.398198(    18)     17  119.577(    40)     16    0.335(    61)      0
     20     20  H       15   1.087712(    19)     14  118.672(    41)     11    1.841(    62)      0
     21     21  H       16   1.085565(    20)     15  120.090(    42)     14  179.858(    63)      0
     22     22  H       17   1.085876(    21)     16  120.330(    43)     15  179.989(    64)      0
     23     23  H       18   1.085134(    22)     17  121.626(    44)     16 -179.429(    65)      0
     24     24  O        5   1.200000(    23)      4  122.552(    45)      3 -179.528(    66)      0
 ---------------------------------------------------------------------------------------------------
                         Z-Matrix orientation:                         
 ---------------------------------------------------------------------
 Center     Atomic      Atomic             Coordinates (Angstroms)
 Number     Number       Type             X           Y           Z
 ---------------------------------------------------------------------
      1          6           0        0.000000    0.000000    0.000000
      2          6           0        0.000000    0.000000    1.399724
      3          6           0        1.213659    0.000000    2.087157
      4          6           0        2.440319    0.003028    1.409585
      5          6           0        2.411880   -0.008726    0.010726
      6          6           0        1.205931   -0.007872   -0.696837
      7          1           0       -0.937257    0.000555   -0.548338
      8          1           0       -0.936484    0.000131    1.948768
      9          1           0        1.218266    0.003438    3.174854
     10          1           0        1.236295   -0.017084   -1.781507
     11          6           0        3.758396    0.052222    2.150130
     12          1           0        3.743924   -0.656648    2.987894
     13          1           0        3.886703    1.047911    2.601910
     14          6           0        4.933268   -0.243215    1.244290
     15          6           0        6.213682   -0.493969    1.755631
     16          6           0        7.303568   -0.721553    0.915462
     17          6           0        7.120513   -0.703620   -0.472125
     18          6           0        5.855587   -0.467441   -1.005132
     19          6           0        4.775698   -0.242273   -0.146007
     20          1           0        6.352085   -0.503815    2.834457
     21          1           0        8.285683   -0.911185    1.337293
     22          1           0        7.959938   -0.878973   -1.138265
     23          1           0        5.682385   -0.456862   -2.076301
     24          8           0        3.410027   -0.015550   -0.655349
 ---------------------------------------------------------------------
                    Distance matrix (angstroms):
                    1          2          3          4          5
     1  C    0.000000
     2  C    1.399724   0.000000
     3  C    2.414372   1.394823   0.000000
     4  C    2.818172   2.440340   1.401359   0.000000
     5  C    2.411919   2.783263   2.397369   1.399198   0.000000
     6  C    1.392808   2.418657   2.784016   2.441484   1.398198
     7  H    1.085876   2.161804   3.401805   3.904035   3.395490
     8  H    2.162105   1.085565   2.154592   3.419579   3.868801
     9  H    3.400571   2.152968   1.087713   2.146995   3.381800
    10  H    2.168521   3.413055   3.868768   3.410739   2.143400
    11  C    4.330280   3.832933   2.546052   1.512665   2.528611
    12  H    4.834838   4.119519   2.764915   2.150725   3.325308
    13  H    4.793174   4.201170   2.916891   2.146031   3.163198
    14  C    5.093579   4.941705   3.821659   2.510529   2.816747
    15  C    6.475808   6.243438   5.035290   3.821652   4.211158
    16  C    7.396000   7.355084   6.243437   4.941697   5.025464
    17  C    7.170752   7.395986   6.475796   5.093565   4.784062
    18  C    5.959588   6.347420   5.597165   4.209069   3.619601
    19  C    4.784068   5.025462   4.211157   2.816742   2.380493
    20  H    6.974021   6.531560   5.216868   4.193932   4.872760
    21  H    8.442225   8.335868   7.169804   5.916866   6.088989
    22  H    8.088811   8.400869   7.529159   6.142936   5.732230
    23  H    6.067063   6.676898   6.124755   4.782666   3.905472
    24  O    3.472464   3.981438   3.513633   2.281366   1.200000
                    6          7          8          9         10
     6  C    0.000000
     7  H    2.148343   0.000000
     8  H    3.404296   2.497106   0.000000
     9  H    3.871728   4.302145   2.479163   0.000000
    10  H    1.085134   2.499069   4.316968   4.956436   0.000000
    11  C    3.824122   5.416047   4.699485   2.739471   4.671570
    12  H    4.521013   5.903415   4.839149   2.617177   5.426272
    13  H    4.379835   5.855904   4.978712   2.922285   5.231942
    14  C    4.209085   6.142964   5.916883   4.193943   4.782697
    15  C    5.597183   7.529193   7.169819   5.216875   6.124797
    16  C    6.347442   8.400914   8.335887   6.531567   6.676954
    17  C    5.959601   8.088840   8.442227   6.974017   6.067111
    18  C    4.682473   6.824252   7.421346   6.260891   4.705682
    19  C    3.619612   5.732250   6.088995   4.872763   3.905501
    20  H    6.260902   8.051845   7.359460   5.170037   6.907629
    21  H    7.421358   9.457775   9.287237   7.359453   7.760167
    22  H    6.824242   8.960004   9.457744   8.051819   6.809111
    23  H    4.705651   6.809079   7.760119   6.907595   4.477502
    24  O    2.204499   4.348630   5.066935   4.413007   2.448130
                   11         12         13         14         15
    11  C    0.000000
    12  H    1.097522   0.000000
    13  H    1.100893   1.753537   0.000000
    14  C    1.512665   2.150726   2.146029   0.000000
    15  C    2.546052   2.764895   2.916918   1.401359   0.000000
    16  C    3.832934   4.119497   4.201200   2.440340   1.394823
    17  C    4.330283   4.834800   4.793233   2.818172   2.414372
    18  C    3.824126   4.520971   4.379903   2.441484   2.784016
    19  C    2.528612   3.325297   3.163216   1.399198   2.397369
    20  H    2.739471   2.617138   2.922335   2.146995   1.087712
    21  H    4.699488   4.839096   4.978789   3.419579   2.154592
    22  H    5.416052   5.903338   5.856026   3.904034   3.401804
    23  H    4.671576   5.426197   5.232062   3.410739   3.868767
    24  O    2.827838   3.714258   3.459466   2.445552   3.728564
                   16         17         18         19         20
    16  C    0.000000
    17  C    1.399724   0.000000
    18  C    2.418657   1.392808   0.000000
    19  C    2.783264   2.411919   1.398198   0.000000
    20  H    2.152968   3.400571   3.871727   3.381800   0.000000
    21  H    1.085565   2.162105   3.404296   3.868801   2.479163
    22  H    2.161804   1.085876   2.148342   3.395490   4.302145
    23  H    3.413055   2.168521   1.085134   2.143400   4.956435
    24  O    4.257412   3.778190   2.511438   1.475090   4.590518
                   21         22         23         24
    21  H    0.000000
    22  H    2.497106   0.000000
    23  H    4.316966   2.499067   0.000000
    24  O    5.342734   4.656222   2.716150   0.000000
 Symmetry turned off by external request.
 Stoichiometry    C13H10O
 Framework group  C1[X(C13H10O)]
 Deg. of freedom    66
 Full point group                 C1      NOp   1
 Rotational constants (GHZ):           2.0978389           0.4589204           0.3792532
 Standard basis: 6-31++G(d,p) (6D, 7F)
   326 basis functions,   528 primitive gaussians,   326 cartesian basis functions
    48 alpha electrons       48 beta electrons
       nuclear repulsion energy       806.4678935947 Hartrees.
 NAtoms=   24 NActive=   24 NUniq=   24 SFac= 1.00D+00 NAtFMM=   60 NAOKFM=F Big=F
 Integral buffers will be    131072 words long.
 Raffenetti 2 integral format.
 Two-electron integral symmetry is turned off.
 One-electron integrals computed using PRISM.
 NBasis=   326 RedAO= T EigKep=  1.67D-06  NBF=   326
 NBsUse=   323 1.00D-06 EigRej=  7.22D-07 NBFU=   323
 Initial guess from the checkpoint file:  "C:\Users\Administrator\Desktop\dataset_dft\C12H8O1\C12H8O1.chk"
 B after Tr=     0.014571    0.001303   -0.017263
         Rot=    1.000000    0.000034    0.000623    0.000108 Ang=   0.07 deg.
 ExpMin= 3.60D-02 ExpMax= 5.48D+03 ExpMxC= 8.25D+02 IAcc=3 IRadAn=         5 AccDes= 0.00D+00
 Harris functional with IExCor=  402 and IRadAn=       5 diagonalized for initial guess.
 HarFok:  IExCor=  402 AccDes= 0.00D+00 IRadAn=         5 IDoV= 1 UseB2=F ITyADJ=14
 ICtDFT=  3500011 ScaDFX=  1.000000  1.000000  1.000000  1.000000
 FoFCou: FMM=F IPFlag=           0 FMFlag=      100000 FMFlg1=           0
         NFxFlg=           0 DoJE=T BraDBF=F KetDBF=T FulRan=T
         wScrn=  0.000000 ICntrl=       500 IOpCl=  0 I1Cent=   200000004 NGrid=           0
         NMat0=    1 NMatS0=      1 NMatT0=    0 NMatD0=    1 NMtDS0=    0 NMtDT0=    0
 Symmetry not used in FoFCou.
 Requested convergence on RMS density matrix=1.00D-08 within 128 cycles.
 Requested convergence on MAX density matrix=1.00D-06.
 Requested convergence on             energy=1.00D-06.
 No special actions if energy rises.
 SCF Done:  E(RB3LYP) =  -576.632441667     A.U. after   14 cycles
            NFock= 14  Conv=0.35D-08     -V/T= 2.0090
 Variable Step   Value    
 -------- ---- -----------
    23       3    2.456644
 ---------------------------------------------------------------------------------------------------
                            Z-MATRIX (ANGSTROMS AND DEGREES)
   CD    Cent   Atom    N1       Length/X        N2       Alpha/Y        N3        Beta/Z          J
 ---------------------------------------------------------------------------------------------------
      1      1  C 
      2      2  C        1   1.399724(     1)
      3      3  C        2   1.394823(     2)      1  119.528(    24)
      4      4  C        3   1.401359(     3)      2  121.557(    25)      1    0.145(    46)      0
      5      5  C        4   1.399198(     4)      3  117.748(    26)      2   -0.685(    47)      0
      6      6  C        1   1.392808(     5)      2  120.021(    27)      3    0.374(    48)      0
      7      7  H        1   1.085876(     6)      6  119.649(    28)      5 -179.993(    49)      0
      8      8  H        2   1.085565(     7)      1  120.382(    29)      6 -179.634(    50)      0
      9      9  H        3   1.087713(     8)      2  119.770(    30)      1  179.791(    51)      0
     10     10  H        6   1.085134(     9)      1  121.626(    31)      2  179.441(    52)      0
     11     11  C        4   1.512665(    10)      3  121.742(    32)      2  177.809(    53)      0
     12     12  H       11   1.097522(    11)      4  109.950(    33)      3   45.378(    54)      0
     13     13  H       11   1.100893(    12)      4  109.383(    34)      3  -70.405(    55)      0
     14     14  C       11   1.512665(    13)      4  112.164(    35)      3  168.048(    56)      0
     15     15  C       14   1.401359(    14)     11  121.742(    36)      4 -168.044(    57)      0
     16     16  C       15   1.394823(    15)     14  121.557(    37)     11 -177.811(    58)      0
     17     17  C       16   1.399724(    16)     15  119.528(    38)     14   -0.154(    59)      0
     18     18  C       17   1.392808(    17)     16  120.021(    39)     15   -0.370(    60)      0
     19     19  C       18   1.398198(    18)     17  119.577(    40)     16    0.335(    61)      0
     20     20  H       15   1.087712(    19)     14  118.672(    41)     11    1.841(    62)      0
     21     21  H       16   1.085565(    20)     15  120.090(    42)     14  179.858(    63)      0
     22     22  H       17   1.085876(    21)     16  120.330(    43)     15  179.989(    64)      0
     23     23  H       18   1.085134(    22)     17  121.626(    44)     16 -179.429(    65)      0
     24     24  O        5   1.300000(    23)      4  122.552(    45)      3 -179.528(    66)      0
 ---------------------------------------------------------------------------------------------------
                         Z-Matrix orientation:                         
 ---------------------------------------------------------------------
 Center     Atomic      Atomic             Coordinates (Angstroms)
 Number     Number       Type             X           Y           Z
 ---------------------------------------------------------------------
      1          6           0        0.000000    0.000000    0.000000
      2          6           0        0.000000    0.000000    1.399724
      3          6           0        1.213659    0.000000    2.087157
      4          6           0        2.440319    0.003028    1.409585
      5          6           0        2.411880   -0.008726    0.010726
      6          6           0        1.205931   -0.007872   -0.696837
      7          1           0       -0.937257    0.000555   -0.548338
      8          1           0       -0.936484    0.000131    1.948768
      9          1           0        1.218266    0.003438    3.174854
     10          1           0        1.236295   -0.017084   -1.781507
     11          6           0        3.758396    0.052222    2.150130
     12          1           0        3.743924   -0.656648    2.987894
     13          1           0        3.886703    1.047911    2.601910
     14          6           0        4.933268   -0.243215    1.244290
     15          6           0        6.213682   -0.493969    1.755631
     16          6           0        7.303568   -0.721553    0.915462
     17          6           0        7.120513   -0.703620   -0.472125
     18          6           0        5.855587   -0.467441   -1.005132
     19          6           0        4.775698   -0.242273   -0.146007
     20          1           0        6.352085   -0.503815    2.834457
     21          1           0        8.285683   -0.911185    1.337293
     22          1           0        7.959938   -0.878973   -1.138265
     23          1           0        5.682385   -0.456862   -2.076301
     24          8           0        3.493206   -0.016119   -0.710855
 ---------------------------------------------------------------------
                    Distance matrix (angstroms):
                    1          2          3          4          5
     1  C    0.000000
     2  C    1.399724   0.000000
     3  C    2.414372   1.394823   0.000000
     4  C    2.818172   2.440340   1.401359   0.000000
     5  C    2.411919   2.783263   2.397369   1.399198   0.000000
     6  C    1.392808   2.418657   2.784016   2.441484   1.398198
     7  H    1.085876   2.161804   3.401805   3.904035   3.395490
     8  H    2.162105   1.085565   2.154592   3.419579   3.868801
     9  H    3.400571   2.152968   1.087713   2.146995   3.381800
    10  H    2.168521   3.413055   3.868768   3.410739   2.143400
    11  C    4.330280   3.832933   2.546052   1.512665   2.528611
    12  H    4.834838   4.119519   2.764915   2.150725   3.325308
    13  H    4.793174   4.201170   2.916891   2.146031   3.163198
    14  C    5.093579   4.941705   3.821659   2.510529   2.816747
    15  C    6.475808   6.243438   5.035290   3.821652   4.211158
    16  C    7.396000   7.355084   6.243437   4.941697   5.025464
    17  C    7.170752   7.395986   6.475796   5.093565   4.784062
    18  C    5.959588   6.347420   5.597165   4.209069   3.619601
    19  C    4.784068   5.025462   4.211157   2.816742   2.380493
    20  H    6.974021   6.531560   5.216868   4.193932   4.872760
    21  H    8.442225   8.335868   7.169804   5.916866   6.088989
    22  H    8.088811   8.400869   7.529159   6.142936   5.732230
    23  H    6.067063   6.676898   6.124755   4.782666   3.905472
    24  O    3.564837   4.081334   3.609081   2.367531   1.300000
                    6          7          8          9         10
     6  C    0.000000
     7  H    2.148343   0.000000
     8  H    3.404296   2.497106   0.000000
     9  H    3.871728   4.302145   2.479163   0.000000
    10  H    1.085134   2.499069   4.316968   4.956436   0.000000
    11  C    3.824122   5.416047   4.699485   2.739471   4.671570
    12  H    4.521013   5.903415   4.839149   2.617177   5.426272
    13  H    4.379835   5.855904   4.978712   2.922285   5.231942
    14  C    4.209085   6.142964   5.916883   4.193943   4.782697
    15  C    5.597183   7.529193   7.169819   5.216875   6.124797
    16  C    6.347442   8.400914   8.335887   6.531567   6.676954
    17  C    5.959601   8.088840   8.442227   6.974017   6.067111
    18  C    4.682473   6.824252   7.421346   6.260891   4.705682
    19  C    3.619612   5.732250   6.088995   4.872763   3.905501
    20  H    6.260902   8.051845   7.359460   5.170037   6.907629
    21  H    7.421358   9.457775   9.287237   7.359453   7.760167
    22  H    6.824242   8.960004   9.457744   8.051819   6.809111
    23  H    4.705651   6.809079   7.760119   6.907595   4.477502
    24  O    2.287332   4.433474   5.166818   4.502718   2.497987
                   11         12         13         14         15
    11  C    0.000000
    12  H    1.097522   0.000000
    13  H    1.100893   1.753537   0.000000
    14  C    1.512665   2.150726   2.146029   0.000000
    15  C    2.546052   2.764895   2.916918   1.401359   0.000000
    16  C    3.832934   4.119497   4.201200   2.440340   1.394823
    17  C    4.330283   4.834800   4.793233   2.818172   2.414372
    18  C    3.824126   4.520971   4.379903   2.441484   2.784016
    19  C    2.528612   3.325297   3.163216   1.399198   2.397369
    20  H    2.739471   2.617138   2.922335   2.146995   1.087712
    21  H    4.699488   4.839096   4.978789   3.419579   2.154592
    22  H    5.416052   5.903338   5.856026   3.904034   3.401804
    23  H    4.671576   5.426197   5.232062   3.410739   3.868767
    24  O    2.874063   3.762165   3.501630   2.438841   3.703091
                   16         17         18         19         20
    16  C    0.000000
    17  C    1.399724   0.000000
    18  C    2.418657   1.392808   0.000000
    19  C    2.783264   2.411919   1.398198   0.000000
    20  H    2.152968   3.400571   3.871727   3.381800   0.000000
    21  H    1.085565   2.162105   3.404296   3.868801   2.479163
    22  H    2.161804   1.085876   2.148342   3.395490   4.302145
    23  H    3.413055   2.168521   1.085134   2.143400   4.956435
    24  O    4.202548   3.699596   2.423043   1.419502   4.580424
                   21         22         23         24
    21  H    0.000000
    22  H    2.497106   0.000000
    23  H    4.316966   2.499067   0.000000
    24  O    5.288090   4.569343   2.617480   0.000000
 Symmetry turned off by external request.
 Stoichiometry    C13H10O
 Framework group  C1[X(C13H10O)]
 Deg. of freedom    66
 Full point group                 C1      NOp   1
 Rotational constants (GHZ):           2.0801088           0.4590182           0.3787673
 Standard basis: 6-31++G(d,p) (6D, 7F)
   326 basis functions,   528 primitive gaussians,   326 cartesian basis functions
    48 alpha electrons       48 beta electrons
       nuclear repulsion energy       804.6438815097 Hartrees.
 NAtoms=   24 NActive=   24 NUniq=   24 SFac= 1.00D+00 NAtFMM=   60 NAOKFM=F Big=F
 Integral buffers will be    131072 words long.
 Raffenetti 2 integral format.
 Two-electron integral symmetry is turned off.
 One-electron integrals computed using PRISM.
 NBasis=   326 RedAO= T EigKep=  1.67D-06  NBF=   326
 NBsUse=   323 1.00D-06 EigRej=  7.24D-07 NBFU=   323
 Initial guess from the checkpoint file:  "C:\Users\Administrator\Desktop\dataset_dft\C12H8O1\C12H8O1.chk"
 B after Tr=     0.014559    0.001305   -0.017270
         Rot=    1.000000    0.000034    0.000622    0.000108 Ang=   0.07 deg.
 ExpMin= 3.60D-02 ExpMax= 5.48D+03 ExpMxC= 8.25D+02 IAcc=3 IRadAn=         5 AccDes= 0.00D+00
 Harris functional with IExCor=  402 and IRadAn=       5 diagonalized for initial guess.
 HarFok:  IExCor=  402 AccDes= 0.00D+00 IRadAn=         5 IDoV= 1 UseB2=F ITyADJ=14
 ICtDFT=  3500011 ScaDFX=  1.000000  1.000000  1.000000  1.000000
 FoFCou: FMM=F IPFlag=           0 FMFlag=      100000 FMFlg1=           0
         NFxFlg=           0 DoJE=T BraDBF=F KetDBF=T FulRan=T
         wScrn=  0.000000 ICntrl=       500 IOpCl=  0 I1Cent=   200000004 NGrid=           0
         NMat0=    1 NMatS0=      1 NMatT0=    0 NMatD0=    1 NMtDS0=    0 NMtDT0=    0
 Symmetry not used in FoFCou.
 Requested convergence on RMS density matrix=1.00D-08 within 128 cycles.
 Requested convergence on MAX density matrix=1.00D-06.
 Requested convergence on             energy=1.00D-06.
 No special actions if energy rises.
 SCF Done:  E(RB3LYP) =  -576.664066334     A.U. after   13 cycles
            NFock= 13  Conv=0.98D-08     -V/T= 2.0095
 Variable Step   Value    
 -------- ---- -----------
    23       4    2.645617
 ---------------------------------------------------------------------------------------------------
                            Z-MATRIX (ANGSTROMS AND DEGREES)
   CD    Cent   Atom    N1       Length/X        N2       Alpha/Y        N3        Beta/Z          J
 ---------------------------------------------------------------------------------------------------
      1      1  C 
      2      2  C        1   1.399724(     1)
      3      3  C        2   1.394823(     2)      1  119.528(    24)
      4      4  C        3   1.401359(     3)      2  121.557(    25)      1    0.145(    46)      0
      5      5  C        4   1.399198(     4)      3  117.748(    26)      2   -0.685(    47)      0
      6      6  C        1   1.392808(     5)      2  120.021(    27)      3    0.374(    48)      0
      7      7  H        1   1.085876(     6)      6  119.649(    28)      5 -179.993(    49)      0
      8      8  H        2   1.085565(     7)      1  120.382(    29)      6 -179.634(    50)      0
      9      9  H        3   1.087713(     8)      2  119.770(    30)      1  179.791(    51)      0
     10     10  H        6   1.085134(     9)      1  121.626(    31)      2  179.441(    52)      0
     11     11  C        4   1.512665(    10)      3  121.742(    32)      2  177.809(    53)      0
     12     12  H       11   1.097522(    11)      4  109.950(    33)      3   45.378(    54)      0
     13     13  H       11   1.100893(    12)      4  109.383(    34)      3  -70.405(    55)      0
     14     14  C       11   1.512665(    13)      4  112.164(    35)      3  168.048(    56)      0
     15     15  C       14   1.401359(    14)     11  121.742(    36)      4 -168.044(    57)      0
     16     16  C       15   1.394823(    15)     14  121.557(    37)     11 -177.811(    58)      0
     17     17  C       16   1.399724(    16)     15  119.528(    38)     14   -0.154(    59)      0
     18     18  C       17   1.392808(    17)     16  120.021(    39)     15   -0.370(    60)      0
     19     19  C       18   1.398198(    18)     17  119.577(    40)     16    0.335(    61)      0
     20     20  H       15   1.087712(    19)     14  118.672(    41)     11    1.841(    62)      0
     21     21  H       16   1.085565(    20)     15  120.090(    42)     14  179.858(    63)      0
     22     22  H       17   1.085876(    21)     16  120.330(    43)     15  179.989(    64)      0
     23     23  H       18   1.085134(    22)     17  121.626(    44)     16 -179.429(    65)      0
     24     24  O        5   1.400000(    23)      4  122.552(    45)      3 -179.528(    66)      0
 ---------------------------------------------------------------------------------------------------
                         Z-Matrix orientation:                         
 ---------------------------------------------------------------------
 Center     Atomic      Atomic             Coordinates (Angstroms)
 Number     Number       Type             X           Y           Z
 ---------------------------------------------------------------------
      1          6           0        0.000000    0.000000    0.000000
      2          6           0        0.000000    0.000000    1.399724
      3          6           0        1.213659    0.000000    2.087157
      4          6           0        2.440319    0.003028    1.409585
      5          6           0        2.411880   -0.008726    0.010726
      6          6           0        1.205931   -0.007872   -0.696837
      7          1           0       -0.937257    0.000555   -0.548338
      8          1           0       -0.936484    0.000131    1.948768
      9          1           0        1.218266    0.003438    3.174854
     10          1           0        1.236295   -0.017084   -1.781507
     11          6           0        3.758396    0.052222    2.150130
     12          1           0        3.743924   -0.656648    2.987894
     13          1           0        3.886703    1.047911    2.601910
     14          6           0        4.933268   -0.243215    1.244290
     15          6           0        6.213682   -0.493969    1.755631
     16          6           0        7.303568   -0.721553    0.915462
     17          6           0        7.120513   -0.703620   -0.472125
     18          6           0        5.855587   -0.467441   -1.005132
     19          6           0        4.775698   -0.242273   -0.146007
     20          1           0        6.352085   -0.503815    2.834457
     21          1           0        8.285683   -0.911185    1.337293
     22          1           0        7.959938   -0.878973   -1.138265
     23          1           0        5.682385   -0.456862   -2.076301
     24          8           0        3.576385   -0.016687   -0.766362
 ---------------------------------------------------------------------
                    Distance matrix (angstroms):
                    1          2          3          4          5
     1  C    0.000000
     2  C    1.399724   0.000000
     3  C    2.414372   1.394823   0.000000
     4  C    2.818172   2.440340   1.401359   0.000000
     5  C    2.411919   2.783263   2.397369   1.399198   0.000000
     6  C    1.392808   2.418657   2.784016   2.441484   1.398198
     7  H    1.085876   2.161804   3.401805   3.904035   3.395490
     8  H    2.162105   1.085565   2.154592   3.419579   3.868801
     9  H    3.400571   2.152968   1.087713   2.146995   3.381800
    10  H    2.168521   3.413055   3.868768   3.410739   2.143400
    11  C    4.330280   3.832933   2.546052   1.512665   2.528611
    12  H    4.834838   4.119519   2.764915   2.150725   3.325308
    13  H    4.793174   4.201170   2.916891   2.146031   3.163198
    14  C    5.093579   4.941705   3.821659   2.510529   2.816747
    15  C    6.475808   6.243438   5.035290   3.821652   4.211158
    16  C    7.396000   7.355084   6.243437   4.941697   5.025464
    17  C    7.170752   7.395986   6.475796   5.093565   4.784062
    18  C    5.959588   6.347420   5.597165   4.209069   3.619601
    19  C    4.784068   5.025462   4.211157   2.816742   2.380493
    20  H    6.974021   6.531560   5.216868   4.193932   4.872760
    21  H    8.442225   8.335868   7.169804   5.916866   6.088989
    22  H    8.088811   8.400869   7.529159   6.142936   5.732230
    23  H    6.067063   6.676898   6.124755   4.782666   3.905472
    24  O    3.657611   4.181236   3.704770   2.454746   1.400000
                    6          7          8          9         10
     6  C    0.000000
     7  H    2.148343   0.000000
     8  H    3.404296   2.497106   0.000000
     9  H    3.871728   4.302145   2.479163   0.000000
    10  H    1.085134   2.499069   4.316968   4.956436   0.000000
    11  C    3.824122   5.416047   4.699485   2.739471   4.671570
    12  H    4.521013   5.903415   4.839149   2.617177   5.426272
    13  H    4.379835   5.855904   4.978712   2.922285   5.231942
    14  C    4.209085   6.142964   5.916883   4.193943   4.782697
    15  C    5.597183   7.529193   7.169819   5.216875   6.124797
    16  C    6.347442   8.400914   8.335887   6.531567   6.676954
    17  C    5.959601   8.088840   8.442227   6.974017   6.067111
    18  C    4.682473   6.824252   7.421346   6.260891   4.705682
    19  C    3.619612   5.732250   6.088995   4.872763   3.905501
    20  H    6.260902   8.051845   7.359460   5.170037   6.907629
    21  H    7.421358   9.457775   9.287237   7.359453   7.760167
    22  H    6.824242   8.960004   9.457744   8.051819   6.809111
    23  H    4.705651   6.809079   7.760119   6.907595   4.477502
    24  O    2.371489   4.518937   5.266706   4.592854   2.550792
                   11         12         13         14         15
    11  C    0.000000
    12  H    1.097522   0.000000
    13  H    1.100893   1.753537   0.000000
    14  C    1.512665   2.150726   2.146029   0.000000
    15  C    2.546052   2.764895   2.916918   1.401359   0.000000
    16  C    3.832934   4.119497   4.201200   2.440340   1.394823
    17  C    4.330283   4.834800   4.793233   2.818172   2.414372
    18  C    3.824126   4.520971   4.379903   2.441484   2.784016
    19  C    2.528612   3.325297   3.163216   1.399198   2.397369
    20  H    2.739471   2.617138   2.922335   2.146995   1.087712
    21  H    4.699488   4.839096   4.978789   3.419579   2.154592
    22  H    5.416052   5.903338   5.856026   3.904034   3.401804
    23  H    4.671576   5.426197   5.232062   3.410739   3.868767
    24  O    2.922978   3.812093   3.546114   2.436220   3.680160
                   16         17         18         19         20
    16  C    0.000000
    17  C    1.399724   0.000000
    18  C    2.418657   1.392808   0.000000
    19  C    2.783264   2.411919   1.398198   0.000000
    20  H    2.152968   3.400571   3.871727   3.381800   0.000000
    21  H    1.085565   2.162105   3.404296   3.868801   2.479163
    22  H    2.161804   1.085876   2.148342   3.395490   4.302145
[...]
    24  O    5.082217   5.680172   5.159759   3.838538   2.900000
                    6          7          8          9         10
     6  C    0.000000
     7  H    2.148343   0.000000
     8  H    3.404296   2.497106   0.000000
     9  H    3.871728   4.302145   2.479163   0.000000
    10  H    1.085134   2.499069   4.316968   4.956436   0.000000
    11  C    3.824122   5.416047   4.699485   2.739471   4.671570
    12  H    4.521013   5.903415   4.839149   2.617177   5.426272
    13  H    4.379835   5.855904   4.978712   2.922285   5.231942
    14  C    4.209085   6.142964   5.916883   4.193943   4.782697
    15  C    5.597183   7.529193   7.169819   5.216875   6.124797
    16  C    6.347442   8.400914   8.335887   6.531567   6.676954
    17  C    5.959601   8.088840   8.442227   6.974017   6.067111
    18  C    4.682473   6.824252   7.421346   6.260891   4.705682
    19  C    3.619612   5.732250   6.088995   4.872763   3.905501
    20  H    6.260902   8.051845   7.359460   5.170037   6.907629
    21  H    7.421358   9.457775   9.287237   7.359453   7.760167
    22  H    6.824242   8.960004   9.457744   8.051819   6.809111
    23  H    4.705651   6.809079   7.760119   6.907595   4.477502
    24  O    3.728946   5.856392   6.765423   5.982632   3.592424
                   11         12         13         14         15
    11  C    0.000000
    12  H    1.097522   0.000000
    13  H    1.100893   1.753537   0.000000
    14  C    1.512665   2.150726   2.146029   0.000000
    15  C    2.546052   2.764895   2.916918   1.401359   0.000000
    16  C    3.832934   4.119497   4.201200   2.440340   1.394823
    17  C    4.330283   4.834800   4.793233   2.818172   2.414372
    18  C    3.824126   4.520971   4.379903   2.441484   2.784016
    19  C    2.528612   3.325297   3.163216   1.399198   2.397369
    20  H    2.739471   2.617138   2.922335   2.146995   1.087712
    21  H    4.699488   4.839096   4.978789   3.419579   2.154592
    22  H    5.416052   5.903338   5.856026   3.904034   3.401804
    23  H    4.671576   5.426197   5.232062   3.410739   3.868767
    24  O    3.898371   4.754430   4.435936   2.853680   3.661147
                   16         17         18         19         20
    16  C    0.000000
    17  C    1.399724   0.000000
    18  C    2.418657   1.392808   0.000000
    19  C    2.783264   2.411919   1.398198   0.000000
    20  H    2.152968   3.400571   3.871727   3.381800   0.000000
    21  H    1.085565   2.162105   3.404296   3.868801   2.479163
    22  H    2.161804   1.085876   2.148342   3.395490   4.302145
    23  H    3.413055   2.168521   1.085134   2.143400   4.956435
    24  O    3.599318   2.646438   1.269732   1.469867   4.713707
                   21         22         23         24
    21  H    0.000000
    22  H    2.497106   0.000000
    23  H    4.316966   2.499067   0.000000
    24  O    4.624853   3.282501   1.072792   0.000000
 Symmetry turned off by external request.
 Stoichiometry    C13H10O
 Framework group  C1[X(C13H10O)]
 Deg. of freedom    66
 Full point group                 C1      NOp   1
 Rotational constants (GHZ):           1.7816032           0.4475708           0.3606686
 Standard basis: 6-31++G(d,p) (6D, 7F)
   326 basis functions,   528 primitive gaussians,   326 cartesian basis functions
    48 alpha electrons       48 beta electrons
       nuclear repulsion energy       789.4778176443 Hartrees.
 NAtoms=   24 NActive=   24 NUniq=   24 SFac= 1.00D+00 NAtFMM=   60 NAOKFM=F Big=F
 Integral buffers will be    131072 words long.
 Raffenetti 2 integral format.
 Two-electron integral symmetry is turned off.
 One-electron integrals computed using PRISM.
 NBasis=   326 RedAO= T EigKep=  1.64D-06  NBF=   326
 NBsUse=   323 1.00D-06 EigRej=  7.55D-07 NBFU=   323
 Initial guess from the checkpoint file:  "C:\Users\Administrator\Desktop\dataset_dft\C12H8O1\C12H8O1.chk"
 B after Tr=     0.014330    0.001303   -0.017151
         Rot=    1.000000    0.000033    0.000595    0.000103 Ang=   0.07 deg.
 ExpMin= 3.60D-02 ExpMax= 5.48D+03 ExpMxC= 8.25D+02 IAcc=3 IRadAn=         5 AccDes= 0.00D+00
 Harris functional with IExCor=  402 and IRadAn=       5 diagonalized for initial guess.
 HarFok:  IExCor=  402 AccDes= 0.00D+00 IRadAn=         5 IDoV= 1 UseB2=F ITyADJ=14
 ICtDFT=  3500011 ScaDFX=  1.000000  1.000000  1.000000  1.000000
 FoFCou: FMM=F IPFlag=           0 FMFlag=      100000 FMFlg1=           0
         NFxFlg=           0 DoJE=T BraDBF=F KetDBF=T FulRan=T
         wScrn=  0.000000 ICntrl=       500 IOpCl=  0 I1Cent=   200000004 NGrid=           0
         NMat0=    1 NMatS0=      1 NMatT0=    0 NMatD0=    1 NMtDS0=    0 NMtDT0=    0
 Symmetry not used in FoFCou.
 Requested convergence on RMS density matrix=1.00D-08 within 128 cycles.
 Requested convergence on MAX density matrix=1.00D-06.
 Requested convergence on             energy=1.00D-06.
 No special actions if energy rises.
 SCF Done:  E(RB3LYP) =  -576.166693540     A.U. after   18 cycles
            NFock= 18  Conv=0.25D-08     -V/T= 2.0079
 Variable Step   Value    
 -------- ---- -----------
    23      20    5.669178
 ---------------------------------------------------------------------------------------------------
                            Z-MATRIX (ANGSTROMS AND DEGREES)
   CD    Cent   Atom    N1       Length/X        N2       Alpha/Y        N3        Beta/Z          J
 ---------------------------------------------------------------------------------------------------
      1      1  C 
      2      2  C        1   1.399724(     1)
      3      3  C        2   1.394823(     2)      1  119.528(    24)
      4      4  C        3   1.401359(     3)      2  121.557(    25)      1    0.145(    46)      0
      5      5  C        4   1.399198(     4)      3  117.748(    26)      2   -0.685(    47)      0
      6      6  C        1   1.392808(     5)      2  120.021(    27)      3    0.374(    48)      0
      7      7  H        1   1.085876(     6)      6  119.649(    28)      5 -179.993(    49)      0
      8      8  H        2   1.085565(     7)      1  120.382(    29)      6 -179.634(    50)      0
      9      9  H        3   1.087713(     8)      2  119.770(    30)      1  179.791(    51)      0
     10     10  H        6   1.085134(     9)      1  121.626(    31)      2  179.441(    52)      0
     11     11  C        4   1.512665(    10)      3  121.742(    32)      2  177.809(    53)      0
     12     12  H       11   1.097522(    11)      4  109.950(    33)      3   45.378(    54)      0
     13     13  H       11   1.100893(    12)      4  109.383(    34)      3  -70.405(    55)      0
     14     14  C       11   1.512665(    13)      4  112.164(    35)      3  168.048(    56)      0
     15     15  C       14   1.401359(    14)     11  121.742(    36)      4 -168.044(    57)      0
     16     16  C       15   1.394823(    15)     14  121.557(    37)     11 -177.811(    58)      0
     17     17  C       16   1.399724(    16)     15  119.528(    38)     14   -0.154(    59)      0
     18     18  C       17   1.392808(    17)     16  120.021(    39)     15   -0.370(    60)      0
     19     19  C       18   1.398198(    18)     17  119.577(    40)     16    0.335(    61)      0
     20     20  H       15   1.087712(    19)     14  118.672(    41)     11    1.841(    62)      0
     21     21  H       16   1.085565(    20)     15  120.090(    42)     14  179.858(    63)      0
     22     22  H       17   1.085876(    21)     16  120.330(    43)     15  179.989(    64)      0
     23     23  H       18   1.085134(    22)     17  121.626(    44)     16 -179.429(    65)      0
     24     24  O        5   3.000000(    23)      4  122.552(    45)      3 -179.528(    66)      0
 ---------------------------------------------------------------------------------------------------
                         Z-Matrix orientation:                         
 ---------------------------------------------------------------------
 Center     Atomic      Atomic             Coordinates (Angstroms)
 Number     Number       Type             X           Y           Z
 ---------------------------------------------------------------------
      1          6           0        0.000000    0.000000    0.000000
      2          6           0        0.000000    0.000000    1.399724
      3          6           0        1.213659    0.000000    2.087157
      4          6           0        2.440319    0.003028    1.409585
      5          6           0        2.411880   -0.008726    0.010726
      6          6           0        1.205931   -0.007872   -0.696837
      7          1           0       -0.937257    0.000555   -0.548338
      8          1           0       -0.936484    0.000131    1.948768
      9          1           0        1.218266    0.003438    3.174854
     10          1           0        1.236295   -0.017084   -1.781507
     11          6           0        3.758396    0.052222    2.150130
     12          1           0        3.743924   -0.656648    2.987894
     13          1           0        3.886703    1.047911    2.601910
     14          6           0        4.933268   -0.243215    1.244290
     15          6           0        6.213682   -0.493969    1.755631
     16          6           0        7.303568   -0.721553    0.915462
     17          6           0        7.120513   -0.703620   -0.472125
     18          6           0        5.855587   -0.467441   -1.005132
     19          6           0        4.775698   -0.242273   -0.146007
     20          1           0        6.352085   -0.503815    2.834457
     21          1           0        8.285683   -0.911185    1.337293
     22          1           0        7.959938   -0.878973   -1.138265
     23          1           0        5.682385   -0.456862   -2.076301
     24          8           0        4.907247   -0.025786   -1.654461
 ---------------------------------------------------------------------
                    Distance matrix (angstroms):
                    1          2          3          4          5
     1  C    0.000000
     2  C    1.399724   0.000000
     3  C    2.414372   1.394823   0.000000
     4  C    2.818172   2.440340   1.401359   0.000000
     5  C    2.411919   2.783263   2.397369   1.399198   0.000000
     6  C    1.392808   2.418657   2.784016   2.441484   1.398198
     7  H    1.085876   2.161804   3.401805   3.904035   3.395490
     8  H    2.162105   1.085565   2.154592   3.419579   3.868801
     9  H    3.400571   2.152968   1.087713   2.146995   3.381800
    10  H    2.168521   3.413055   3.868768   3.410739   2.143400
    11  C    4.330280   3.832933   2.546052   1.512665   2.528611
    12  H    4.834838   4.119519   2.764915   2.150725   3.325308
    13  H    4.793174   4.201170   2.916891   2.146031   3.163198
    14  C    5.093579   4.941705   3.821659   2.510529   2.816747
    15  C    6.475808   6.243438   5.035290   3.821652   4.211158
    16  C    7.396000   7.355084   6.243437   4.941697   5.025464
    17  C    7.170752   7.395986   6.475796   5.093565   4.784062
    18  C    5.959588   6.347420   5.597165   4.209069   3.619601
    19  C    4.784068   5.025462   4.211157   2.816742   2.380493
    20  H    6.974021   6.531560   5.216868   4.193932   4.872760
    21  H    8.442225   8.335868   7.169804   5.916866   6.088989
    22  H    8.088811   8.400869   7.529159   6.142936   5.732230
    23  H    6.067063   6.676898   6.124755   4.782666   3.905472
    24  O    5.178705   5.780120   5.257658   3.933821   3.000000
                    6          7          8          9         10
     6  C    0.000000
     7  H    2.148343   0.000000
     8  H    3.404296   2.497106   0.000000
     9  H    3.871728   4.302145   2.479163   0.000000
    10  H    1.085134   2.499069   4.316968   4.956436   0.000000
    11  C    3.824122   5.416047   4.699485   2.739471   4.671570
    12  H    4.521013   5.903415   4.839149   2.617177   5.426272
    13  H    4.379835   5.855904   4.978712   2.922285   5.231942
    14  C    4.209085   6.142964   5.916883   4.193943   4.782697
    15  C    5.597183   7.529193   7.169819   5.216875   6.124797
    16  C    6.347442   8.400914   8.335887   6.531567   6.676954
    17  C    5.959601   8.088840   8.442227   6.974017   6.067111
    18  C    4.682473   6.824252   7.421346   6.260891   4.705682
    19  C    3.619612   5.732250   6.088995   4.872763   3.905501
    20  H    6.260902   8.051845   7.359460   5.170037   6.907629
    21  H    7.421358   9.457775   9.287237   7.359453   7.760167
    22  H    6.824242   8.960004   9.457744   8.051819   6.809111
    23  H    4.705651   6.809079   7.760119   6.907595   4.477502
    24  O    3.823233   5.948313   6.865357   6.077148   3.673160
                   11         12         13         14         15
    11  C    0.000000
    12  H    1.097522   0.000000
    13  H    1.100893   1.753537   0.000000
    14  C    1.512665   2.150726   2.146029   0.000000
    15  C    2.546052   2.764895   2.916918   1.401359   0.000000
    16  C    3.832934   4.119497   4.201200   2.440340   1.394823
    17  C    4.330283   4.834800   4.793233   2.818172   2.414372
    18  C    3.824126   4.520971   4.379903   2.441484   2.784016
    19  C    2.528612   3.325297   3.163216   1.399198   2.397369
    20  H    2.739471   2.617138   2.922335   2.146995   1.087712
    21  H    4.699488   4.839096   4.978789   3.419579   2.154592
    22  H    5.416052   5.903338   5.856026   3.904034   3.401804
    23  H    4.671576   5.426197   5.232062   3.410739   3.868767
    24  O    3.975030   4.827294   4.506777   2.907010   3.681670
                   16         17         18         19         20
    16  C    0.000000
    17  C    1.399724   0.000000
    18  C    2.418657   1.392808   0.000000
    19  C    2.783264   2.411919   1.398198   0.000000
    20  H    2.152968   3.400571   3.871727   3.381800   0.000000
    21  H    1.085565   2.162105   3.404296   3.868801   2.479163
    22  H    2.161804   1.085876   2.148342   3.395490   4.302145
    23  H    3.413055   2.168521   1.085134   2.143400   4.956435
    24  O    3.582031   2.599216   1.231274   1.529577   4.739879
                   21         22         23         24
    21  H    0.000000
    22  H    2.497106   0.000000
    23  H    4.316966   2.499067   0.000000
    24  O    4.598734   3.211434   0.982147   0.000000
 Symmetry turned off by external request.
 Stoichiometry    C13H10O
 Framework group  C1[X(C13H10O)]
 Deg. of freedom    66
 Full point group                 C1      NOp   1
 Rotational constants (GHZ):           1.7635106           0.4460402           0.3589614
 Standard basis: 6-31++G(d,p) (6D, 7F)
   326 basis functions,   528 primitive gaussians,   326 cartesian basis functions
    48 alpha electrons       48 beta electrons
       nuclear repulsion energy       788.7338852668 Hartrees.
 NAtoms=   24 NActive=   24 NUniq=   24 SFac= 1.00D+00 NAtFMM=   60 NAOKFM=F Big=F
 Integral buffers will be    131072 words long.
 Raffenetti 2 integral format.
 Two-electron integral symmetry is turned off.
 One-electron integrals computed using PRISM.
 NBasis=   326 RedAO= T EigKep=  1.64D-06  NBF=   326
 NBsUse=   323 1.00D-06 EigRej=  7.54D-07 NBFU=   323
 Initial guess from the checkpoint file:  "C:\Users\Administrator\Desktop\dataset_dft\C12H8O1\C12H8O1.chk"
 B after Tr=     0.014314    0.001300   -0.017130
         Rot=    1.000000    0.000033    0.000593    0.000103 Ang=   0.07 deg.
 ExpMin= 3.60D-02 ExpMax= 5.48D+03 ExpMxC= 8.25D+02 IAcc=3 IRadAn=         5 AccDes= 0.00D+00
 Harris functional with IExCor=  402 and IRadAn=       5 diagonalized for initial guess.
 HarFok:  IExCor=  402 AccDes= 0.00D+00 IRadAn=         5 IDoV= 1 UseB2=F ITyADJ=14
 ICtDFT=  3500011 ScaDFX=  1.000000  1.000000  1.000000  1.000000
 FoFCou: FMM=F IPFlag=           0 FMFlag=      100000 FMFlg1=           0
         NFxFlg=           0 DoJE=T BraDBF=F KetDBF=T FulRan=T
         wScrn=  0.000000 ICntrl=       500 IOpCl=  0 I1Cent=   200000004 NGrid=           0
         NMat0=    1 NMatS0=      1 NMatT0=    0 NMatD0=    1 NMtDS0=    0 NMtDT0=    0
 Symmetry not used in FoFCou.
 Requested convergence on RMS density matrix=1.00D-08 within 128 cycles.
 Requested convergence on MAX density matrix=1.00D-06.
 Requested convergence on             energy=1.00D-06.
 No special actions if energy rises.
 SCF Done:  E(RB3LYP) =  -576.161805313     A.U. after   16 cycles
            NFock= 16  Conv=0.72D-08     -V/T= 2.0076
 Scan completed.
 
 Summary of the potential surface scan:
   N      B23         SCF    
 ----  ---------  -----------
    1     1.0000   -576.41671
    2     1.1000   -576.55939
    3     1.2000   -576.63244
    4     1.3000   -576.66407
    5     1.4000   -576.66997
    6     1.5000   -576.65905
    7     1.6000   -576.63647
    8     1.7000   -576.60552
    9     1.8000   -576.56855
   10     1.9000   -576.52751
   11     2.0000   -576.48401
   12     2.1000   -576.43938
   13     2.2000   -576.39451
   14     2.3000   -576.35005
   15     2.4000   -576.30661
   16     2.5000   -576.26521
   17     2.6000   -576.22792
   18     2.7000   -576.19894
   19     2.8000   -576.17997
   20     2.9000   -576.16669
   21     3.0000   -576.16181
 ----  ---------  -----------
  
 1|1|UNPC-BF-202112021916|Scan|RB3LYP|6-31++G(d,p)|C13H10O1|ADMINISTRAT
 OR|22-Mar-2023|1||# scan b3lyp/6-31++g(d,p) nosymm||Title Card Require
 d||0,1|C|C,1,B1|C,2,B2,1,A1|C,3,B3,2,A2,1,D1,0|C,4,B4,3,A3,2,D2,0|C,1,
 B5,2,A4,3,D3,0|H,1,B6,6,A5,5,D4,0|H,2,B7,1,A6,6,D5,0|H,3,B8,2,A7,1,D6,
 0|H,6,B9,1,A8,2,D7,0|C,4,B10,3,A9,2,D8,0|H,11,B11,4,A10,3,D9,0|H,11,B1
 2,4,A11,3,D10,0|C,11,B13,4,A12,3,D11,0|C,14,B14,11,A13,4,D12,0|C,15,B1
 5,14,A14,11,D13,0|C,16,B16,15,A15,14,D14,0|C,17,B17,16,A16,15,D15,0|C,
 18,B18,17,A17,16,D16,0|H,15,B19,14,A18,11,D17,0|H,16,B20,15,A19,14,D18
 ,0|H,17,B21,16,A20,15,D19,0|H,18,B22,17,A21,16,D20,0|O,5,B23,4,A22,3,D
 21,0||B1=1.3997239|B2=1.39482312|B3=1.4013591|B4=1.39919779|B5=1.39280
 797|B6=1.08587562|B7=1.08556515|B8=1.08771251|B9=1.08513367|B10=1.5126
 6511|B11=1.0975216|B12=1.10089306|B13=1.51266499|B14=1.40135866|B15=1.
 39482294|B16=1.39972408|B17=1.39280783|B18=1.39819779|B19=1.08771249|B
 20=1.08556513|B21=1.0858756|B22=1.08513367|B23=1.,s,20,0.1|A1=119.5278
 1845|A2=121.55709213|A3=117.74802768|A4=120.02057514|A5=119.64896541|A
 6=120.38231777|A7=119.77035128|A8=121.62600857|A9=121.74197682|A10=109
 .9499947|A11=109.38255963|A12=112.16387941|A13=121.74203506|A14=121.55
 707246|A15=119.52782|A16=120.02057775|A17=119.57728084|A18=118.6716467
 8|A19=120.08985678|A20=120.32954394|A21=121.6259947|A22=122.55232084|D
 1=0.14527143|D2=-0.68499733|D3=0.37402258|D4=-179.99291488|D5=-179.634
 0071|D6=179.79138251|D7=179.44107968|D8=177.80900624|D9=45.37781746|D1
 0=-70.40478136|D11=168.04846937|D12=-168.04420133|D13=-177.81138673|D1
 4=-0.15417152|D15=-0.36976752|D16=0.33522198|D17=1.84070955|D18=179.85
 793801|D19=179.98899364|D20=-179.42853229|D21=-179.52758219||Version=E
 M64W-G16RevA.03|HF=-576.4167118,-576.5593876,-576.6324417,-576.6640663
 ,-576.6699744,-576.6590456,-576.6364673,-576.6055159,-576.5685527,-576
 .5275064,-576.4840135,-576.4393763,-576.3945124,-576.3500511,-576.3066
 125,-576.2652148,-576.227921,-576.1989366,-576.179968,-576.1666935,-57
 6.1618053|RMSD=4.547e-009,5.182e-009,3.512e-009,9.769e-009,7.060e-009,
 6.594e-009,8.402e-009,8.557e-009,9.362e-009,4.736e-009,2.726e-009,3.97
 6e-009,8.416e-009,5.574e-009,3.288e-009,2.720e-009,5.667e-009,5.474e-0
 09,2.934e-009,2.525e-009,7.248e-009|PG=C01 [X(C13H10O1)]||@


 THOSE WITH THE GOLD MAKE THE RULES.

             -- PETER'S GOLDEN RULE
 Job cpu time:       0 days  0 hours 27 minutes  9.0 seconds.
 Elapsed time:       0 days  0 hours 26 minutes 45.6 seconds.
 File lengths (MBytes):  RWF=     69 Int=      0 D2E=      0 Chk=     15 Scr=      1
 Normal termination of Gaussian 16 at Wed Mar 22 20:18:34 2023.
