 Entering Link 1 = I:\G16W\l1.exe PID=     19668.
  
 Copyright (c) 1988,1990,1992,1993,1995,1998,2003,2009,2016,
            Gaussian, Inc.  All Rights Reserved.
  
 This is part of the Gaussian(R) 16 program.  It is based on
 the Gaussian(R) 09 system (copyright 2009, Gaussian, Inc.),
 the Gaussian(R) 03 system (copyright 2003, Gaussian, Inc.),
 the Gaussian(R) 98 system (copyright 1998, Gaussian, Inc.),
 the Gaussian(R) 94 system (copyright 1995, Gaussian, Inc.),
 the Gaussian 92(TM) system (copyright 1992, Gaussian, Inc.),
 the Gaussian 90(TM) system (copyright 1990, Gaussian, Inc.),
 the Gaussian 88(TM) system (copyright 1988, Gaussian, Inc.),
 the Gaussian 86(TM) system (copyright 1986, Carnegie Mellon
 University), and the Gaussian 82(TM) system (copyright 1983,
 Carnegie Mellon University). Gaussian is a federally registered
 trademark of Gaussian, Inc.
  
 This software contains proprietary and confidential information,
 including trade secrets, belonging to Gaussian, Inc.
  
 This software is provided under written license and may be
 used, copied, transmitted, or stored only in accord with that
 written license.
  
 The following legend is applicable only to US Government
 contracts under FAR:
  
                    RESTRICTED RIGHTS LEGEND
  
 Use, reproduction and disclosure by the US Government is
 subject to restrictions as set forth in subparagraphs (a)
 and (c) of the Commercial Computer Software - Restricted
 Rights clause in FAR 52.227-19.
  
 Gaussian, Inc.
 340 Quinnipiac St., Bldg. 40, Wallingford CT 06492
  
  
 ---------------------------------------------------------------
 Warning -- This program may not be used in any manner that
 competes with the business of Gaussian, Inc. or will provide
 assistance to any competitor of Gaussian, Inc.  The licensee
 of this program is prohibited from giving any competitor of
 Gaussian, Inc. access to this program.  By using this program,
 the user acknowledges that Gaussian, Inc. is engaged in the
 business of creating and licensing software in the field of
 computational chemistry and represents and warrants to the
 licensee that it is not a competitor of Gaussian, Inc. and that
 it will not use this program in any manner prohibited above.
 ---------------------------------------------------------------
  

 Cite this work as:
 Gaussian 16, Revision A.03,
 M. J. Frisch, G. W. Trucks, H. B. Schlegel, G. E. Scuseria, 
 M. A. Robb, J. R. Cheeseman, G. Scalmani, V. Barone, 
 G. A. Petersson, H. Nakatsuji, X. Li, M. Caricato, A. V. Marenich, 
 J. Bloino, B. G. Janesko, R. Gomperts, B. Mennucci, H. P. Hratchian, 
 J. V. Ortiz, A. F. Izmaylov, J. L. Sonnenberg, D. Williams-Young, 
 F. Ding, F. Lipparini, F. Egidi, J. Goings, B. Peng, A. Petrone, 
 T. Henderson, D. Ranasinghe, V. G. Zakrzewski, J. Gao, N. Rega, 
 G. Zheng, W. Liang, M. Hada, M. Ehara, K. Toyota, R. Fukuda, 
 J. Hasegawa, M. Ishida, T. Nakajima, Y. Honda, O. Kitao, H. Nakai, 
 T. Vreven, K. Throssell, J. A. Montgomery, Jr., J. E. Peralta, 
 F. Ogliaro, M. J. Bearpark, J. J. Heyd, E. N. Brothers, K. N. Kudin, 
 V. N. Staroverov, T. A. Keith, R. Kobayashi, J. Normand, 
 K. Raghavachari, A. P. Rendell, J. C. Burant, S. S. Iyengar, 
 J. Tomasi, M. Cossi, J. M. Millam, M. Klene, C. Adamo, R. Cammi, 
 J. W. Ochterski, R. L. Martin, K. Morokuma, O. Farkas, 
 J. B. Foresman, and D. J. Fox, Gaussian, Inc., Wallingford CT, 2016.
 
 ******************************************
 Gaussian 16:  EM64W-G16RevA.03 17-Dec-2016
                22-Mar-2023 
 ******************************************
 %nprocshared=32
 Will use up to   32 processors via shared memory.
 %mem=600MW
 %chk=C:\Users\Administrator\Desktop\dataset_dft\C12H8O1\C12H8O1.chk
 --------------------------------
 # scan b3lyp/6-31++g(d,p) nosymm
 --------------------------------
 1/38=1,60=1,172=1/1,8;
 2/12=2,15=1,17=6,18=5,29=3,40=1/2;
 3/5=1,6=6,7=1111,11=2,25=1,30=1,74=-5/1,2,3;
 4//1;
 5/5=2,38=5/2;
 6/7=2,8=2,9=2,10=2,18=1,28=1/1;
 1/60=1/8(1);
 99/9=1/99;
 2/15=1,29=3/2;
 3/5=1,6=6,7=1111,11=2,25=1,30=1,74=-5/1,2,3;
 4/5=5,16=3,69=1/1;
 5/5=2,38=5/2;
 1/60=1/8(-4);
 99/9=1/99;
 -------------------
 Title Card Required
 -------------------
 Symbolic Z-matrix:
 Charge =  0 Multiplicity = 1
 C(PDBName=C,ResName=MOL,ResNum=1)
 C(PDBName=C,ResName=MOL,ResNum=1) 1    B1
 C(PDBName=C,ResName=MOL,ResNum=1) 2    B2       1    A1
 C(PDBName=C,ResName=MOL,ResNum=1) 3    B3       2    A2       1    D1       0
 C(PDBName=C,ResName=MOL,ResNum=1) 4    B4       3    A3       2    D2       0
 C(PDBName=C,ResName=MOL,ResNum=1) 1    B5       2    A4       3    D3       0
 H(PDBName=H,ResName=MOL,ResNum=1) 1    B6       6    A5       5    D4       0
 H(PDBName=H,ResName=MOL,ResNum=1) 2    B7       1    A6       6    D5       0
 H(PDBName=H,ResName=MOL,ResNum=1) 3    B8       2    A7       1    D6       0
 H(PDBName=H,ResName=MOL,ResNum=1) 6    B9       1    A8       2    D7       0
 C(PDBName=C,ResName=MOL,ResNum=1) 4    B10      3    A9       2    D8       0
 H(PDBName=H,ResName=MOL,ResNum=1) 11   B11      4    A10      3    D9       0
 H(PDBName=H,ResName=MOL,ResNum=1) 11   B12      4    A11      3    D10      0
 C(PDBName=C,ResName=MOL,ResNum=1) 11   B13      4    A12      3    D11      0
 C(PDBName=C,ResName=MOL,ResNum=1) 14   B14      11   A13      4    D12      0
 C(PDBName=C,ResName=MOL,ResNum=1) 15   B15      14   A14      11   D13      0
 C(PDBName=C,ResName=MOL,ResNum=1) 16   B16      15   A15      14   D14      0
 C(PDBName=C,ResName=MOL,ResNum=1) 17   B17      16   A16      15   D15      0
 C(PDBName=C,ResName=MOL,ResNum=1) 18   B18      17   A17      16   D16      0
 H(PDBName=H,ResName=MOL,ResNum=1) 15   B19      14   A18      11   D17      0
 H(PDBName=H,ResName=MOL,ResNum=1) 16   B20      15   A19      14   D18      0
 H(PDBName=H,ResName=MOL,ResNum=1) 17   B21      16   A20      15   D19      0
 H(PDBName=H,ResName=MOL,ResNum=1) 18   B22      17   A21      16   D20      0
 O(PDBName=O,ResName=MOL,ResNum=1) 5    B23      4    A22      3    D21      0
       Variables:
  B1                    1.39972                  
  B2                    1.39482                  
  B3                    1.40136                  
  B4                    1.3992                   
  B5                    1.39281                  
  B6                    1.08588                  
  B7                    1.08557                  
  B8                    1.08771                  
  B9                    1.08513                  
  B10                   1.51267                  
  B11                   1.09752                  
  B12                   1.10089                  
  B13                   1.     Scan 20    0.1    
  B14                   1.40136                  
  B15                   1.39482                  
  B16                   1.39972                  
  B17                   1.39281                  
  B18                   1.3982                   
  B19                   1.08771                  
  B20                   1.08557                  
  B21                   1.08588                  
  B22                   1.08513                  
  B23                   1.37909                  
  A1                  119.52782                  
  A2                  121.55709                  
  A3                  117.74803                  
  A4                  120.02058                  
  A5                  119.64897                  
  A6                  120.38232                  
  A7                  119.77035                  
  A8                  121.62601                  
  A9                  121.74198                  
  A10                 109.94999                  
  A11                 109.38256                  
  A12                 112.16388                  
  A13                 121.74204                  
  A14                 121.55707                  
  A15                 119.52782                  
  A16                 120.02058                  
  A17                 119.57728                  
  A18                 118.67165                  
  A19                 120.08986                  
  A20                 120.32954                  
  A21                 121.62599                  
  A22                 122.55232                  
  D1                    0.14527                  
  D2                   -0.685                    
  D3                    0.37402                  
  D4                 -179.99291                  
  D5                 -179.63401                  
  D6                  179.79138                  
  D7                  179.44108                  
  D8                  177.80901                  
  D9                   45.37782                  
  D10                 -70.40478                  
  D11                 168.04847                  
  D12                -168.0442                   
  D13                -177.81139                  
  D14                  -0.15417                  
  D15                  -0.36977                  
  D16                   0.33522                  
  D17                   1.84071                  
  D18                 179.85794                  
  D19                 179.98899                  
  D20                -179.42853                  
  D21                -179.52758                  
 
 Center=      3.47088382     -0.17588507      0.84619352
 Residue   1 PDB Number     1_0 MOL charge    0.00000000 layers R        AvRTP=      0.00000000    180.00000000     90.00000000
 Scan the potential surface.
 Variable   Value     No. Steps Step-Size
 -------- ----------- --------- ---------
    13       1.000000      20      0.1000
 A total of     21 points will be computed.
 ---------------------------------------------------------------------------------------------------
                            Z-MATRIX (ANGSTROMS AND DEGREES)
   CD    Cent   Atom    N1       Length/X        N2       Alpha/Y        N3        Beta/Z          J
 ---------------------------------------------------------------------------------------------------
      1      1  C 
      2      2  C        1   1.399724(     1)
      3      3  C        2   1.394823(     2)      1  119.528(    24)
      4      4  C        3   1.401359(     3)      2  121.557(    25)      1    0.145(    46)      0
      5      5  C        4   1.399198(     4)      3  117.748(    26)      2   -0.685(    47)      0
      6      6  C        1   1.392808(     5)      2  120.021(    27)      3    0.374(    48)      0
      7      7  H        1   1.085876(     6)      6  119.649(    28)      5 -179.993(    49)      0
      8      8  H        2   1.085565(     7)      1  120.382(    29)      6 -179.634(    50)      0
      9      9  H        3   1.087713(     8)      2  119.770(    30)      1  179.791(    51)      0
     10     10  H        6   1.085134(     9)      1  121.626(    31)      2  179.441(    52)      0
     11     11  C        4   1.512665(    10)      3  121.742(    32)      2  177.809(    53)      0
     12     12  H       11   1.097522(    11)      4  109.950(    33)      3   45.378(    54)      0
     13     13  H       11   1.100893(    12)      4  109.383(    34)      3  -70.405(    55)      0
     14     14  C       11   1.000000(    13)      4  112.164(    35)      3  168.048(    56)      0
     15     15  C       14   1.401359(    14)     11  121.742(    36)      4 -168.044(    57)      0
     16     16  C       15   1.394823(    15)     14  121.557(    37)     11 -177.811(    58)      0
     17     17  C       16   1.399724(    16)     15  119.528(    38)     14   -0.154(    59)      0
     18     18  C       17   1.392808(    17)     16  120.021(    39)     15   -0.370(    60)      0
     19     19  C       18   1.398198(    18)     17  119.577(    40)     16    0.335(    61)      0
     20     20  H       15   1.087712(    19)     14  118.672(    41)     11    1.841(    62)      0
     21     21  H       16   1.085565(    20)     15  120.090(    42)     14  179.858(    63)      0
     22     22  H       17   1.085876(    21)     16  120.330(    43)     15  179.989(    64)      0
     23     23  H       18   1.085134(    22)     17  121.626(    44)     16 -179.429(    65)      0
     24     24  O        5   1.379090(    23)      4  122.552(    45)      3 -179.528(    66)      0
 ---------------------------------------------------------------------------------------------------
                         Z-Matrix orientation:                         
 ---------------------------------------------------------------------
 Center     Atomic      Atomic             Coordinates (Angstroms)
 Number     Number       Type             X           Y           Z
 ---------------------------------------------------------------------
      1          6           0        0.000000    0.000000    0.000000
      2          6           0        0.000000    0.000000    1.399724
      3          6           0        1.213659    0.000000    2.087157
      4          6           0        2.440319    0.003028    1.409585
      5          6           0        2.411880   -0.008726    0.010726
      6          6           0        1.205931   -0.007872   -0.696837
      7          1           0       -0.937257    0.000555   -0.548338
      8          1           0       -0.936484    0.000131    1.948768
      9          1           0        1.218266    0.003438    3.174854
     10          1           0        1.236295   -0.017084   -1.781507
     11          6           0        3.758396    0.052222    2.150130
     12          1           0        3.743924   -0.656648    2.987894
     13          1           0        3.886703    1.047911    2.601910
     14          6           0        4.535086   -0.143087    1.551293
     15          6           0        5.815500   -0.393841    2.062634
     16          6           0        6.905386   -0.621425    1.222465
     17          6           0        6.722331   -0.603493   -0.165122
     18          6           0        5.457405   -0.367313   -0.698128
     19          6           0        4.377516   -0.142145    0.160996
     20          1           0        5.953904   -0.403687    3.141460
     21          1           0        7.887501   -0.811057    1.644296
     22          1           0        7.561756   -0.778845   -0.831262
     23          1           0        5.284203   -0.356734   -1.769298
     24          8           0        3.558992   -0.016569   -0.754755
 ---------------------------------------------------------------------
                    Distance matrix (angstroms):
                    1          2          3          4          5
     1  C    0.000000
     2  C    1.399724   0.000000
     3  C    2.414372   1.394823   0.000000
     4  C    2.818172   2.440340   1.401359   0.000000
     5  C    2.411919   2.783263   2.397369   1.399198   0.000000
     6  C    1.392808   2.418657   2.784016   2.441484   1.398198
     7  H    1.085876   2.161804   3.401805   3.904035   3.395490
     8  H    2.162105   1.085565   2.154592   3.419579   3.868801
     9  H    3.400571   2.152968   1.087713   2.146995   3.381800
    10  H    2.168521   3.413055   3.868768   3.410739   2.143400
    11  C    4.330280   3.832933   2.546052   1.512665   2.528611
    12  H    4.834838   4.119519   2.764915   2.150725   3.325308
    13  H    4.793174   4.201170   2.916891   2.146031   3.163198
    14  C    4.795205   4.539874   3.367418   2.104634   2.626672
    15  C    6.183010   5.866396   4.618729   3.460611   3.992903
    16  C    7.040238   6.935557   5.790477   4.512404   4.694179
    17  C    6.751385   6.928397   5.981842   4.602521   4.354844
    18  C    5.514125   5.858257   5.089413   3.698976   3.147426
    19  C    4.382781   4.551626   3.706790   2.309282   1.975881
    20  H    6.743938   6.216557   4.872827   3.938285   4.743778
    21  H    8.097790   7.932862   6.737515   5.512678   5.770158
    22  H    7.647075   7.922377   7.030086   5.644630   5.274776
    23  H    5.583948   6.171933   5.618615   4.280468   3.397034
    24  O    3.638180   4.160346   3.684743   2.436428   1.379090
                    6          7          8          9         10
     6  C    0.000000
     7  H    2.148343   0.000000
     8  H    3.404296   2.497106   0.000000
     9  H    3.871728   4.302145   2.479163   0.000000
    10  H    1.085134   2.499069   4.316968   4.956436   0.000000
    11  C    3.824122   5.416047   4.699485   2.739471   4.671570
    12  H    4.521013   5.903415   4.839149   2.617177   5.426272
    13  H    4.379835   5.855904   4.978712   2.922285   5.231942
    14  C    4.019408   5.863073   5.487858   3.695770   4.690997
    15  C    5.386258   7.250686   6.764427   4.746517   5.990699
    16  C    6.045160   8.064097   7.899923   6.045297   6.444196
    17  C    5.573881   7.692920   7.968083   6.466725   5.749188
    18  C    4.266642   6.406986   6.929856   5.753934   4.371972
    19  C    3.288291   5.363798   5.608473   4.368684   3.695433
    20  H    6.118205   7.827267   7.004501   4.753223   6.829414
    21  H    7.125264   9.129223   8.866423   6.890915   7.523633
    22  H    6.403825   8.539364   8.975269   7.543262   6.441638
    23  H    4.231333   6.350194   7.255916   6.411413   4.062151
    24  O    2.353789   4.501017   5.245819   4.573973   2.539515
                   11         12         13         14         15
    11  C    0.000000
    12  H    1.097522   0.000000
    13  H    1.100893   1.753537   0.000000
    14  C    1.000000   1.718577   1.715423   0.000000
    15  C    2.106728   2.283988   2.467737   1.401359   0.000000
    16  C    3.349315   3.621164   3.715104   2.440340   1.394823
    17  C    3.817756   4.337654   4.292364   2.818172   2.414372
    18  C    3.342936   4.075107   3.919212   2.441484   2.784016
    19  C    2.092306   2.942364   2.759564   1.399198   2.397369
    20  H    2.451701   2.229705   2.582938   2.146995   1.087712
    21  H    4.248603   4.358708   4.514329   3.419579   2.154592
    22  H    4.903562   5.401549   5.350675   3.904034   3.401804
    23  H    4.225784   5.009320   4.799322   3.410739   3.868767
    24  O    2.912534   3.801490   3.536625   2.507314   3.629304
                   16         17         18         19         20
    16  C    0.000000
    17  C    1.399724   0.000000
    18  C    2.418657   1.392808   0.000000
    19  C    2.783264   2.411919   1.398198   0.000000
    20  H    2.152968   3.400571   3.871727   3.381800   0.000000
    21  H    1.085565   2.162105   3.404296   3.868801   2.479163
    22  H    2.161804   1.085876   2.148342   3.395490   4.302145
    23  H    3.413055   2.168521   1.085134   2.143400   4.956435
    24  O    3.933651   3.270911   1.931373   1.234646   4.589766
                   21         22         23         24
    21  H    0.000000
    22  H    2.497106   0.000000
    23  H    4.316966   2.499067   0.000000
    24  O    5.012250   4.075419   2.030114   0.000000
 Symmetry turned off by external request.
 Stoichiometry    C13H10O
 Framework group  C1[X(C13H10O)]
 Deg. of freedom    66
 Full point group                 C1      NOp   1
 Rotational constants (GHZ):           2.0742258           0.5312148           0.4261308
 Standard basis: 6-31++G(d,p) (6D, 7F)
   326 basis functions,   528 primitive gaussians,   326 cartesian basis functions
    48 alpha electrons       48 beta electrons
       nuclear repulsion energy       840.9001332756 Hartrees.
 NAtoms=   24 NActive=   24 NUniq=   24 SFac= 1.00D+00 NAtFMM=   60 NAOKFM=F Big=F
 Integral buffers will be    131072 words long.
 Raffenetti 2 integral format.
 Two-electron integral symmetry is turned off.
 One-electron integrals computed using PRISM.
 NBasis=   326 RedAO= T EigKep=  1.24D-06  NBF=   326
 NBsUse=   322 1.00D-06 EigRej=  6.82D-07 NBFU=   322
 ExpMin= 3.60D-02 ExpMax= 5.48D+03 ExpMxC= 8.25D+02 IAcc=3 IRadAn=         5 AccDes= 0.00D+00
 Harris functional with IExCor=  402 and IRadAn=       5 diagonalized for initial guess.
 HarFok:  IExCor=  402 AccDes= 0.00D+00 IRadAn=         5 IDoV= 1 UseB2=F ITyADJ=14
 ICtDFT=  3500011 ScaDFX=  1.000000  1.000000  1.000000  1.000000
 FoFCou: FMM=F IPFlag=           0 FMFlag=      100000 FMFlg1=           0
         NFxFlg=           0 DoJE=T BraDBF=F KetDBF=T FulRan=T
         wScrn=  0.000000 ICntrl=       500 IOpCl=  0 I1Cent=   200000004 NGrid=           0
         NMat0=    1 NMatS0=      1 NMatT0=    0 NMatD0=    1 NMtDS0=    0 NMtDT0=    0
 Symmetry not used in FoFCou.
 Requested convergence on RMS density matrix=1.00D-08 within 128 cycles.
 Requested convergence on MAX density matrix=1.00D-06.
 Requested convergence on             energy=1.00D-06.
 No special actions if energy rises.
 SCF Done:  E(RB3LYP) =  -576.171094011     A.U. after   16 cycles
            NFock= 16  Conv=0.60D-08     -V/T= 2.0033

 **********************************************************************

            Population analysis using the SCF density.

 **********************************************************************

 Alpha  occ. eigenvalues --  -19.21818 -10.26104 -10.23633 -10.21129 -10.20703
 Alpha  occ. eigenvalues --  -10.20665 -10.20420 -10.20272 -10.18536 -10.18455
 Alpha  occ. eigenvalues --  -10.18376 -10.17897 -10.17351 -10.17060  -1.17953
 Alpha  occ. eigenvalues --   -0.95029  -0.87360  -0.82462  -0.78066  -0.76192
 Alpha  occ. eigenvalues --   -0.73477  -0.68326  -0.67085  -0.64661  -0.60111
 Alpha  occ. eigenvalues --   -0.57067  -0.55008  -0.53842  -0.52169  -0.51139
 Alpha  occ. eigenvalues --   -0.48092  -0.47616  -0.46610  -0.45778  -0.43628
 Alpha  occ. eigenvalues --   -0.43181  -0.41856  -0.38652  -0.38080  -0.37578
 Alpha  occ. eigenvalues --   -0.35862  -0.33027  -0.32523  -0.32328  -0.26812
 Alpha  occ. eigenvalues --   -0.25992  -0.22706  -0.19923
 Alpha virt. eigenvalues --   -0.04183  -0.02242  -0.01150  -0.00946  -0.00086
 Alpha virt. eigenvalues --    0.00420   0.01076   0.01861   0.01958   0.03252
 Alpha virt. eigenvalues --    0.03867   0.04006   0.04125   0.06149   0.06493
 Alpha virt. eigenvalues --    0.06499   0.07179   0.07554   0.08558   0.09317
 Alpha virt. eigenvalues --    0.09603   0.10330   0.10684   0.11084   0.11226
 Alpha virt. eigenvalues --    0.12052   0.12412   0.12537   0.12591   0.12976
 Alpha virt. eigenvalues --    0.13289   0.13329   0.13545   0.13863   0.14293
 Alpha virt. eigenvalues --    0.14852   0.15129   0.15351   0.15569   0.16558
 Alpha virt. eigenvalues --    0.16699   0.17845   0.18049   0.18429   0.18691
 Alpha virt. eigenvalues --    0.19118   0.19218   0.19900   0.20884   0.21095
 Alpha virt. eigenvalues --    0.21220   0.21754   0.21932   0.22881   0.23764
 Alpha virt. eigenvalues --    0.24160   0.24681   0.25776   0.25920   0.26449
 Alpha virt. eigenvalues --    0.26675   0.27328   0.28034   0.28659   0.28768
 Alpha virt. eigenvalues --    0.29450   0.30349   0.31053   0.31391   0.31582
 Alpha virt. eigenvalues --    0.31950   0.32462   0.33003   0.34006   0.35085
 Alpha virt. eigenvalues --    0.36006   0.36452   0.36815   0.37202   0.37633
 Alpha virt. eigenvalues --    0.38792   0.39398   0.40450   0.41449   0.42687
 Alpha virt. eigenvalues --    0.44252   0.44913   0.49147   0.50592   0.52928
 Alpha virt. eigenvalues --    0.57643   0.60426   0.61995   0.62893   0.66228
 Alpha virt. eigenvalues --    0.67096   0.67950   0.68543   0.69948   0.70286
 Alpha virt. eigenvalues --    0.72730   0.72780   0.73997   0.74779   0.75234
 Alpha virt. eigenvalues --    0.75644   0.76470   0.77074   0.78434   0.78842
 Alpha virt. eigenvalues --    0.79603   0.80727   0.82047   0.83235   0.85036
 Alpha virt. eigenvalues --    0.85664   0.87641   0.90003   0.90350   0.91499
 Alpha virt. eigenvalues --    0.96164   0.97522   0.98193   0.98821   0.99476
 Alpha virt. eigenvalues --    1.01336   1.02253   1.03069   1.04835   1.05133
 Alpha virt. eigenvalues --    1.06459   1.08816   1.09974   1.11202   1.11771
 Alpha virt. eigenvalues --    1.13231   1.14250   1.16027   1.17903   1.19334
 Alpha virt. eigenvalues --    1.19584   1.20608   1.22520   1.23674   1.24331
 Alpha virt. eigenvalues --    1.25715   1.28075   1.29564   1.31983   1.32968
 Alpha virt. eigenvalues --    1.33077   1.33646   1.36742   1.37529   1.38657
 Alpha virt. eigenvalues --    1.38885   1.39807   1.41126   1.41991   1.43071
 Alpha virt. eigenvalues --    1.44949   1.45243   1.47664   1.50786   1.55136
 Alpha virt. eigenvalues --    1.57329   1.58683   1.67666   1.70089   1.74726
 Alpha virt. eigenvalues --    1.78580   1.82075   1.83057   1.85298   1.87490
 Alpha virt. eigenvalues --    1.91286   1.91602   1.92284   1.93276   1.94640
 Alpha virt. eigenvalues --    1.95414   1.97830   1.99467   2.00169   2.00654
 Alpha virt. eigenvalues --    2.01105   2.02487   2.02734   2.04306   2.06157
 Alpha virt. eigenvalues --    2.08400   2.09469   2.14256   2.16541   2.20014
 Alpha virt. eigenvalues --    2.22639   2.24227   2.25736   2.27268   2.29327
 Alpha virt. eigenvalues --    2.30274   2.32112   2.35199   2.36298   2.37067
 Alpha virt. eigenvalues --    2.38397   2.39231   2.39880   2.40859   2.42742
 Alpha virt. eigenvalues --    2.44012   2.45756   2.47361   2.49583   2.52623
 Alpha virt. eigenvalues --    2.53621   2.54656   2.56429   2.57056   2.57499
 Alpha virt. eigenvalues --    2.58013   2.59891   2.60307   2.62122   2.63756
 Alpha virt. eigenvalues --    2.64971   2.69683   2.70823   2.73794   2.73896
 Alpha virt. eigenvalues --    2.76370   2.77568   2.78115   2.80548   2.83693
 Alpha virt. eigenvalues --    2.87146   2.91586   2.96664   3.00344   3.03695
 Alpha virt. eigenvalues --    3.09762   3.12055   3.15300   3.19585   3.24645
 Alpha virt. eigenvalues --    3.26383   3.28929   3.30478   3.31476   3.34631
 Alpha virt. eigenvalues --    3.35965   3.37871   3.44507   3.50219   3.52569
 Alpha virt. eigenvalues --    3.56744   3.71791   3.79998   3.86505   4.18131
 Alpha virt. eigenvalues --    4.29866   4.31578   4.33433   4.35340   4.40629
 Alpha virt. eigenvalues --    4.43192   4.47822   4.51068   4.54644   4.61010
 Alpha virt. eigenvalues --    4.73558   4.85885   5.21175   5.26986
          Condensed to atoms (all electrons):
               1          2          3          4          5          6
     1  C    5.652211   0.479670  -0.641720  -0.095464  -0.076136   0.500730
     2  C    0.479670   6.383600   0.070558  -0.713244   0.186069  -0.603768
     3  C   -0.641720   0.070558  11.851490  -2.940913  -5.452558   2.591040
     4  C   -0.095464  -0.713244  -2.940913  12.923337  -0.247732  -1.631229
     5  C   -0.076136   0.186069  -5.452558  -0.247732  17.667973  -3.903218
     6  C    0.500730  -0.603768   2.591040  -1.631229  -3.903218  10.075800
     7  H    0.343405  -0.063307   0.025232   0.020616  -0.049082   0.029882
     8  H   -0.062721   0.350180   0.027228  -0.018055   0.012204   0.009523
     9  H    0.008377  -0.038241   0.081560   0.126939   0.245053  -0.046106
    10  H   -0.061512  -0.025613  -0.003909   0.041756   0.072538   0.310084
    11  C   -0.111681   0.024501   1.996613  -0.703767  -3.086819   0.711576
    12  H    0.004302  -0.028801  -0.027295  -0.007199   0.087930   0.019936
    13  H    0.006899  -0.018058   0.006040  -0.057729  -0.066456   0.004808
    14  C   -0.122745   0.127878   1.258200   0.781082  -3.488495  -0.264988
    15  C   -0.017819   0.062935  -0.569305   0.289297  -0.025171  -0.619244
    16  C   -0.017836   0.043041   0.197226  -0.148506  -0.206963  -0.019214
    17  C    0.033733  -0.015942  -0.131777   0.047800   0.045262  -0.040378
    18  C    0.038125  -0.098691  -0.435988  -0.745107   1.851336  -0.804412
    19  C    0.172397  -0.194879  -1.934361  -1.818072   3.046009   0.320037
    20  H    0.001191  -0.008729  -0.047392  -0.084684   0.104026   0.011327
    21  H   -0.000015  -0.000189   0.001132  -0.007236   0.004344  -0.000756
    22  H    0.000510   0.000177  -0.003894   0.007360  -0.017430  -0.005013
    23  H    0.000799   0.000206  -0.001135  -0.032603  -0.045070   0.040395
    24  O    0.090374  -0.000757   0.017498   0.120455   0.011363  -0.246851
               7          8          9         10         11         12
     1  C    0.343405  -0.062721   0.008377  -0.061512  -0.111681   0.004302
     2  C   -0.063307   0.350180  -0.038241  -0.025613   0.024501  -0.028801
     3  C    0.025232   0.027228   0.081560  -0.003909   1.996613  -0.027295
     4  C    0.020616  -0.018055   0.126939   0.041756  -0.703767  -0.007199
     5  C   -0.049082   0.012204   0.245053   0.072538  -3.086819   0.087930
     6  C    0.029882   0.009523  -0.046106   0.310084   0.711576   0.019936
     7  H    0.616752  -0.011803  -0.003760  -0.010982   0.007105   0.000164
     8  H   -0.011803   0.620792  -0.012892  -0.003343  -0.007539   0.001767
     9  H   -0.003760  -0.012892   0.643768   0.001835  -0.133257  -0.007329
    10  H   -0.010982  -0.003343   0.001835   0.616117  -0.011050   0.000165
    11  C    0.007105  -0.007539  -0.133257  -0.011050   9.142286   0.362680
    12  H    0.000164   0.001767  -0.007329   0.000165   0.362680   0.776768
    13  H    0.000231  -0.000929   0.004342  -0.000563   0.431651  -0.138685
    14  C    0.000678  -0.007960  -0.080738  -0.011716   1.091459  -0.132466
    15  C   -0.001684  -0.001339   0.000653   0.002693  -0.543119  -0.120792
    16  C    0.000070  -0.000253  -0.003660   0.000665   0.312496  -0.063076
    17  C    0.000662   0.000008   0.002020  -0.003994   0.044641  -0.014809
    18  C    0.001707  -0.001561   0.014882   0.019595  -1.123824   0.024135
    19  C   -0.015419  -0.000434   0.089324  -0.031471  -1.923159   0.139327
    20  H   -0.000009  -0.000081   0.001671  -0.000095  -0.178157  -0.009537
    21  H    0.000001  -0.000002  -0.000023   0.000063  -0.006064   0.003034
    22  H   -0.000001   0.000002  -0.000023  -0.000187   0.010254  -0.000383
    23  H   -0.000205   0.000090  -0.000025  -0.001494  -0.002213   0.000200
    24  O    0.001815   0.000322  -0.003223  -0.037162   0.022720   0.006110
              13         14         15         16         17         18
     1  C    0.006899  -0.122745  -0.017819  -0.017836   0.033733   0.038125
     2  C   -0.018058   0.127878   0.062935   0.043041  -0.015942  -0.098691
     3  C    0.006040   1.258200  -0.569305   0.197226  -0.131777  -0.435988
     4  C   -0.057729   0.781082   0.289297  -0.148506   0.047800  -0.745107
     5  C   -0.066456  -3.488495  -0.025171  -0.206963   0.045262   1.851336
     6  C    0.004808  -0.264988  -0.619244  -0.019214  -0.040378  -0.804412
     7  H    0.000231   0.000678  -0.001684   0.000070   0.000662   0.001707
     8  H   -0.000929  -0.007960  -0.001339  -0.000253   0.000008  -0.001561
     9  H    0.004342  -0.080738   0.000653  -0.003660   0.002020   0.014882
    10  H   -0.000563  -0.011716   0.002693   0.000665  -0.003994   0.019595
    11  C    0.431651   1.091459  -0.543119   0.312496   0.044641  -1.123824
    12  H   -0.138685  -0.132466  -0.120792  -0.063076  -0.014809   0.024135
    13  H    0.763787   0.015584  -0.045936   0.009442   0.029629  -0.021542
    14  C    0.015584  13.475269  -3.525665   0.301309   0.383818  -3.172907
    15  C   -0.045936  -3.525665  10.736201  -0.575836  -0.461273   2.152488
    16  C    0.009442   0.301309  -0.575836   6.316734   0.235928  -0.423469
    17  C    0.029629   0.383818  -0.461273   0.235928   6.392555   0.111019
    18  C   -0.021542  -3.172907   2.152488  -0.423469   0.111019   9.294809
    19  C   -0.097896  -1.676909  -0.852509  -0.079255  -0.859998  -0.396327
    20  H   -0.003352  -0.035846   0.169811   0.003223  -0.028224   0.017536
    21  H   -0.002762  -0.065136   0.101558   0.287097  -0.068544   0.034626
    22  H    0.000828   0.026935   0.054608  -0.122636   0.365990   0.032956
    23  H   -0.001641   0.059631  -0.022645  -0.009297  -0.150292   0.278001
    24  O    0.007608   0.039634  -0.068152  -0.017300   0.255011  -0.314305
              19         20         21         22         23         24
     1  C    0.172397   0.001191  -0.000015   0.000510   0.000799   0.090374
     2  C   -0.194879  -0.008729  -0.000189   0.000177   0.000206  -0.000757
     3  C   -1.934361  -0.047392   0.001132  -0.003894  -0.001135   0.017498
     4  C   -1.818072  -0.084684  -0.007236   0.007360  -0.032603   0.120455
     5  C    3.046009   0.104026   0.004344  -0.017430  -0.045070   0.011363
     6  C    0.320037   0.011327  -0.000756  -0.005013   0.040395  -0.246851
     7  H   -0.015419  -0.000009   0.000001  -0.000001  -0.000205   0.001815
     8  H   -0.000434  -0.000081  -0.000002   0.000002   0.000090   0.000322
     9  H    0.089324   0.001671  -0.000023  -0.000023  -0.000025  -0.003223
    10  H   -0.031471  -0.000095   0.000063  -0.000187  -0.001494  -0.037162
    11  C   -1.923159  -0.178157  -0.006064   0.010254  -0.002213   0.022720
    12  H    0.139327  -0.009537   0.003034  -0.000383   0.000200   0.006110
    13  H   -0.097896  -0.003352  -0.002762   0.000828  -0.001641   0.007608
    14  C   -1.676909  -0.035846  -0.065136   0.026935   0.059631   0.039634
    15  C   -0.852509   0.169811   0.101558   0.054608  -0.022645  -0.068152
    16  C   -0.079255   0.003223   0.287097  -0.122636  -0.009297  -0.017300
    17  C   -0.859998  -0.028224  -0.068544   0.365990  -0.150292   0.255011
    18  C   -0.396327   0.017536   0.034626   0.032956   0.278001  -0.314305
    19  C   12.961665   0.290524   0.014970  -0.063572   0.194400  -0.536123
    20  H    0.290524   0.694808  -0.003856  -0.005492   0.003925  -0.001410
    21  H    0.014970  -0.003856   0.623337  -0.012544  -0.002418  -0.000306
    22  H   -0.063572  -0.005492  -0.012544   0.643790  -0.012812   0.002574
    23  H    0.194400   0.003925  -0.002418  -0.012812   0.636863  -0.074910
    24  O   -0.536123  -0.001410  -0.000306   0.002574  -0.074910   9.043084
 Mulliken charges:
               1
     1  C   -0.125075
     2  C    0.081403
     3  C    0.066431
     4  C    0.892899
     5  C   -0.668975
     6  C   -0.439959
     7  H    0.107931
     8  H    0.106794
     9  H    0.108853
    10  H    0.137578
    11  C   -0.327333
    12  H    0.123852
    13  H    0.174699
    14  C    1.024094
    15  C   -0.119756
    16  C   -0.019930
    17  C   -0.172847
    18  C   -0.333081
    19  C   -0.748269
    20  H    0.108821
    21  H    0.099688
    22  H    0.098003
    23  H    0.142249
    24  O   -0.318069
 Sum of Mulliken charges =   0.00000
 Mulliken charges with hydrogens summed into heavy atoms:
               1
     1  C   -0.017144
     2  C    0.188198
     3  C    0.175284
     4  C    0.892899
     5  C   -0.668975
     6  C   -0.302381
    11  C   -0.028782
    14  C    1.024094
    15  C   -0.010935
    16  C    0.079758
    17  C   -0.074845
    18  C   -0.190832
    19  C   -0.748269
    24  O   -0.318069
 Electronic spatial extent (au):  <R**2>=           6840.4801
 Charge=              0.0000 electrons
 Dipole moment (field-independent basis, Debye):
    X=             -1.3561    Y=              0.2276    Z=              0.8195  Tot=              1.6007
 Quadrupole moment (field-independent basis, Debye-Ang):
   XX=            -85.7869   YY=            -86.2592   ZZ=            -73.4743
   XY=              0.5174   XZ=              3.2839   YZ=              0.2882
 Traceless Quadrupole moment (field-independent basis, Debye-Ang):
   XX=             -3.9467   YY=             -4.4191   ZZ=              8.3658
   XY=              0.5174   XZ=              3.2839   YZ=              0.2882
 Octapole moment (field-independent basis, Debye-Ang**2):
  XXX=           -864.1302  YYY=             45.3112  ZZZ=           -161.7546  XYY=           -297.3038
  XXY=              9.2218  XXZ=            -43.7844  XZZ=           -256.0307  YZZ=             11.5524
  YYZ=            -61.9188  XYZ=              1.2085
 Hexadecapole moment (field-independent basis, Debye-Ang**3):
 XXXX=          -8543.3163 YYYY=           -159.3616 ZZZZ=           -953.9350 XXXY=            169.8790
 XXXZ=           -549.5919 YYYX=            285.1275 YYYZ=             25.2091 ZZZX=           -563.2500
 ZZZY=             17.0710 XXYY=          -1557.0549 XXZZ=          -1465.4635 YYZZ=           -206.4395
 XXYZ=              9.4882 YYXZ=           -213.0482 ZZXY=             73.9269
 N-N= 8.409001332756D+02 E-N=-3.020284190967D+03  KE= 5.742597205604D+02
 Variable Step   Value    
 -------- ---- -----------
    13       1    2.078699
 ---------------------------------------------------------------------------------------------------
                            Z-MATRIX (ANGSTROMS AND DEGREES)
   CD    Cent   Atom    N1       Length/X        N2       Alpha/Y        N3        Beta/Z          J
 ---------------------------------------------------------------------------------------------------
      1      1  C 
      2      2  C        1   1.399724(     1)
      3      3  C        2   1.394823(     2)      1  119.528(    24)
      4      4  C        3   1.401359(     3)      2  121.557(    25)      1    0.145(    46)      0
      5      5  C        4   1.399198(     4)      3  117.748(    26)      2   -0.685(    47)      0
      6      6  C        1   1.392808(     5)      2  120.021(    27)      3    0.374(    48)      0
      7      7  H        1   1.085876(     6)      6  119.649(    28)      5 -179.993(    49)      0
      8      8  H        2   1.085565(     7)      1  120.382(    29)      6 -179.634(    50)      0
      9      9  H        3   1.087713(     8)      2  119.770(    30)      1  179.791(    51)      0
     10     10  H        6   1.085134(     9)      1  121.626(    31)      2  179.441(    52)      0
     11     11  C        4   1.512665(    10)      3  121.742(    32)      2  177.809(    53)      0
     12     12  H       11   1.097522(    11)      4  109.950(    33)      3   45.378(    54)      0
     13     13  H       11   1.100893(    12)      4  109.383(    34)      3  -70.405(    55)      0
     14     14  C       11   1.100000(    13)      4  112.164(    35)      3  168.048(    56)      0
     15     15  C       14   1.401359(    14)     11  121.742(    36)      4 -168.044(    57)      0
     16     16  C       15   1.394823(    15)     14  121.557(    37)     11 -177.811(    58)      0
     17     17  C       16   1.399724(    16)     15  119.528(    38)     14   -0.154(    59)      0
     18     18  C       17   1.392808(    17)     16  120.021(    39)     15   -0.370(    60)      0
     19     19  C       18   1.398198(    18)     17  119.577(    40)     16    0.335(    61)      0
     20     20  H       15   1.087712(    19)     14  118.672(    41)     11    1.841(    62)      0
     21     21  H       16   1.085565(    20)     15  120.090(    42)     14  179.858(    63)      0
     22     22  H       17   1.085876(    21)     16  120.330(    43)     15  179.989(    64)      0
     23     23  H       18   1.085134(    22)     17  121.626(    44)     16 -179.429(    65)      0
     24     24  O        5   1.379090(    23)      4  122.552(    45)      3 -179.528(    66)      0
 ---------------------------------------------------------------------------------------------------
                         Z-Matrix orientation:                         
 ---------------------------------------------------------------------
 Center     Atomic      Atomic             Coordinates (Angstroms)
 Number     Number       Type             X           Y           Z
 ---------------------------------------------------------------------
      1          6           0        0.000000    0.000000    0.000000
      2          6           0        0.000000    0.000000    1.399724
      3          6           0        1.213659    0.000000    2.087157
      4          6           0        2.440319    0.003028    1.409585
      5          6           0        2.411880   -0.008726    0.010726
      6          6           0        1.205931   -0.007872   -0.696837
      7          1           0       -0.937257    0.000555   -0.548338
      8          1           0       -0.936484    0.000131    1.948768
      9          1           0        1.218266    0.003438    3.174854
     10          1           0        1.236295   -0.017084   -1.781507
     11          6           0        3.758396    0.052222    2.150130
     12          1           0        3.743924   -0.656648    2.987894
     13          1           0        3.886703    1.047911    2.601910
     14          6           0        4.612755   -0.162618    1.491409
     15          6           0        5.893169   -0.413372    2.002750
     16          6           0        6.983055   -0.640955    1.162581
     17          6           0        6.800000   -0.623023   -0.225006
     18          6           0        5.535074   -0.386844   -0.758012
     19          6           0        4.455185   -0.161676    0.101112
     20          1           0        6.031573   -0.423218    3.081576
     21          1           0        7.965170   -0.830588    1.584413
     22          1           0        7.639425   -0.798376   -0.891146
     23          1           0        5.361872   -0.376265   -1.829182
     24          8           0        3.558992   -0.016569   -0.754755
 ---------------------------------------------------------------------
                    Distance matrix (angstroms):
                    1          2          3          4          5
     1  C    0.000000
     2  C    1.399724   0.000000
     3  C    2.414372   1.394823   0.000000
     4  C    2.818172   2.440340   1.401359   0.000000
     5  C    2.411919   2.783263   2.397369   1.399198   0.000000
     6  C    1.392808   2.418657   2.784016   2.441484   1.398198
     7  H    1.085876   2.161804   3.401805   3.904035   3.395490
     8  H    2.162105   1.085565   2.154592   3.419579   3.868801
     9  H    3.400571   2.152968   1.087713   2.146995   3.381800
    10  H    2.168521   3.413055   3.868768   3.410739   2.143400
    11  C    4.330280   3.832933   2.546052   1.512665   2.528611
    12  H    4.834838   4.119519   2.764915   2.150725   3.325308
    13  H    4.793174   4.201170   2.916891   2.146031   3.163198
    14  C    4.850593   4.616531   3.454739   2.180279   2.657059
    15  C    6.237894   5.938346   4.698491   3.528089   4.031287
    16  C    7.108128   7.016418   5.878061   4.594800   4.756273
    17  C    6.832188   7.019110   6.077949   4.697941   4.437176
    18  C    5.600114   5.953362   5.188378   3.798420   3.238561
    19  C    4.459264   4.643404   3.804997   2.408094   2.051014
    20  H    6.786390   6.275955   4.937639   3.984262   4.764882
    21  H    8.163588   8.010488   6.820963   5.590122   5.830179
    22  H    7.732552   8.015379   7.127283   5.741630   5.363222
    23  H    5.677777   6.270333   5.717251   4.378236   3.496112
    24  O    3.638180   4.160346   3.684743   2.436428   1.379090
                    6          7          8          9         10
     6  C    0.000000
     7  H    2.148343   0.000000
     8  H    3.404296   2.497106   0.000000
     9  H    3.871728   4.302145   2.479163   0.000000
    10  H    1.085134   2.499069   4.316968   4.956436   0.000000
    11  C    3.824122   5.416047   4.699485   2.739471   4.671570
    12  H    4.521013   5.903415   4.839149   2.617177   5.426272
    13  H    4.379835   5.855904   4.978712   2.922285   5.231942
    14  C    4.052014   5.915220   5.570433   3.792640   4.704640
    15  C    5.424242   7.303020   6.842372   4.837590   6.013661
    16  C    6.101917   8.128353   7.984246   6.139811   6.487073
    17  C    5.647534   7.769076   8.060199   6.565612   5.809016
    18  C    4.346130   6.487304   7.025488   5.852742   4.434384
    19  C    3.349332   5.433832   5.701764   4.466855   3.731811
    20  H    6.142942   7.868955   7.072220   4.833079   6.841725
    21  H    7.181105   9.191988   8.947754   6.981821   7.567626
    22  H    6.484790   8.620631   9.069120   7.642418   6.511777
    23  H    4.323166   6.439067   7.354174   6.507997   4.141457
    24  O    2.353789   4.501017   5.245819   4.573973   2.539515
                   11         12         13         14         15
    11  C    0.000000
    12  H    1.097522   0.000000
    13  H    1.100893   1.753537   0.000000
    14  C    1.100000   1.799556   1.796036   0.000000
    15  C    2.189921   2.376751   2.553477   1.401359   0.000000
    16  C    3.442990   3.718062   3.809375   2.440340   1.394823
    17  C    3.917727   4.434350   4.389849   2.818172   2.414372
    18  C    3.436082   4.160869   4.008083   2.441484   2.784016
    19  C    2.174797   3.014034   2.835536   1.399198   2.397369
    20  H    2.502192   2.301435   2.644762   2.146995   1.087712
    21  H    4.335474   4.451847   4.604123   3.419579   2.154592
    22  H    5.003525   5.499270   5.449141   3.904034   3.401804
    23  H    4.311573   5.089262   4.882517   3.410739   3.868767
    24  O    2.912534   3.801490   3.536625   2.485357   3.634511
                   16         17         18         19         20
    16  C    0.000000
    17  C    1.399724   0.000000
    18  C    2.418657   1.392808   0.000000
    19  C    2.783264   2.411919   1.398198   0.000000
    20  H    2.152968   3.400571   3.871727   3.381800   0.000000
    21  H    1.085565   2.162105   3.404296   3.868801   2.479163
    22  H    2.161804   1.085876   2.148342   3.395490   4.302145
    23  H    3.413055   2.168521   1.085134   2.143400   4.956435
    24  O    3.973695   3.339544   2.010477   1.247689   4.582189
                   21         22         23         24
    21  H    0.000000
    22  H    2.497106   0.000000
    23  H    4.316966   2.499067   0.000000
    24  O    5.054576   4.156893   2.129355   0.000000
 Symmetry turned off by external request.
 Stoichiometry    C13H10O
 Framework group  C1[X(C13H10O)]
 Deg. of freedom    66
 Full point group                 C1      NOp   1
 Rotational constants (GHZ):           2.0728955           0.5163495           0.4165060
 Standard basis: 6-31++G(d,p) (6D, 7F)
   326 basis functions,   528 primitive gaussians,   326 cartesian basis functions
    48 alpha electrons       48 beta electrons
       nuclear repulsion energy       832.8933035185 Hartrees.
 NAtoms=   24 NActive=   24 NUniq=   24 SFac= 1.00D+00 NAtFMM=   60 NAOKFM=F Big=F
 Integral buffers will be    131072 words long.
 Raffenetti 2 integral format.
 Two-electron integral symmetry is turned off.
 One-electron integrals computed using PRISM.
 NBasis=   326 RedAO= T EigKep=  1.34D-06  NBF=   326
 NBsUse=   322 1.00D-06 EigRej=  6.87D-07 NBFU=   322
 Initial guess from the checkpoint file:  "C:\Users\Administrator\Desktop\dataset_dft\C12H8O1\C12H8O1.chk"
 B after Tr=     0.051347   -0.001162    0.005580
         Rot=    0.999991   -0.000638   -0.003996    0.000959 Ang=  -0.48 deg.
 ExpMin= 3.60D-02 ExpMax= 5.48D+03 ExpMxC= 8.25D+02 IAcc=3 IRadAn=         5 AccDes= 0.00D+00
 Harris functional with IExCor=  402 and IRadAn=       5 diagonalized for initial guess.
 HarFok:  IExCor=  402 AccDes= 0.00D+00 IRadAn=         5 IDoV= 1 UseB2=F ITyADJ=14
 ICtDFT=  3500011 ScaDFX=  1.000000  1.000000  1.000000  1.000000
 FoFCou: FMM=F IPFlag=           0 FMFlag=      100000 FMFlg1=           0
         NFxFlg=           0 DoJE=T BraDBF=F KetDBF=T FulRan=T
         wScrn=  0.000000 ICntrl=       500 IOpCl=  0 I1Cent=   200000004 NGrid=           0
         NMat0=    1 NMatS0=      1 NMatT0=    0 NMatD0=    1 NMtDS0=    0 NMtDT0=    0
 Symmetry not used in FoFCou.
 Requested convergence on RMS density matrix=1.00D-08 within 128 cycles.
 Requested convergence on MAX density matrix=1.00D-06.
 Requested convergence on             energy=1.00D-06.
 No special actions if energy rises.
 SCF Done:  E(RB3LYP) =  -576.401241803     A.U. after   14 cycles
            NFock= 14  Conv=0.86D-08     -V/T= 2.0054
 Variable Step   Value    
 -------- ---- -----------
    13       2    2.267671
 ---------------------------------------------------------------------------------------------------
                            Z-MATRIX (ANGSTROMS AND DEGREES)
   CD    Cent   Atom    N1       Length/X        N2       Alpha/Y        N3        Beta/Z          J
 ---------------------------------------------------------------------------------------------------
      1      1  C 
      2      2  C        1   1.399724(     1)
      3      3  C        2   1.394823(     2)      1  119.528(    24)
      4      4  C        3   1.401359(     3)      2  121.557(    25)      1    0.145(    46)      0
      5      5  C        4   1.399198(     4)      3  117.748(    26)      2   -0.685(    47)      0
      6      6  C        1   1.392808(     5)      2  120.021(    27)      3    0.374(    48)      0
      7      7  H        1   1.085876(     6)      6  119.649(    28)      5 -179.993(    49)      0
      8      8  H        2   1.085565(     7)      1  120.382(    29)      6 -179.634(    50)      0
      9      9  H        3   1.087713(     8)      2  119.770(    30)      1  179.791(    51)      0
     10     10  H        6   1.085134(     9)      1  121.626(    31)      2  179.441(    52)      0
     11     11  C        4   1.512665(    10)      3  121.742(    32)      2  177.809(    53)      0
     12     12  H       11   1.097522(    11)      4  109.950(    33)      3   45.378(    54)      0
     13     13  H       11   1.100893(    12)      4  109.383(    34)      3  -70.405(    55)      0
     14     14  C       11   1.200000(    13)      4  112.164(    35)      3  168.048(    56)      0
     15     15  C       14   1.401359(    14)     11  121.742(    36)      4 -168.044(    57)      0
     16     16  C       15   1.394823(    15)     14  121.557(    37)     11 -177.811(    58)      0
     17     17  C       16   1.399724(    16)     15  119.528(    38)     14   -0.154(    59)      0
     18     18  C       17   1.392808(    17)     16  120.021(    39)     15   -0.370(    60)      0
     19     19  C       18   1.398198(    18)     17  119.577(    40)     16    0.335(    61)      0
     20     20  H       15   1.087712(    19)     14  118.672(    41)     11    1.841(    62)      0
     21     21  H       16   1.085565(    20)     15  120.090(    42)     14  179.858(    63)      0
     22     22  H       17   1.085876(    21)     16  120.330(    43)     15  179.989(    64)      0
     23     23  H       18   1.085134(    22)     17  121.626(    44)     16 -179.429(    65)      0
     24     24  O        5   1.379090(    23)      4  122.552(    45)      3 -179.528(    66)      0
 ---------------------------------------------------------------------------------------------------
                         Z-Matrix orientation:                         
 ---------------------------------------------------------------------
 Center     Atomic      Atomic             Coordinates (Angstroms)
 Number     Number       Type             X           Y           Z
 ---------------------------------------------------------------------
      1          6           0        0.000000    0.000000    0.000000
      2          6           0        0.000000    0.000000    1.399724
      3          6           0        1.213659    0.000000    2.087157
      4          6           0        2.440319    0.003028    1.409585
      5          6           0        2.411880   -0.008726    0.010726
      6          6           0        1.205931   -0.007872   -0.696837
      7          1           0       -0.937257    0.000555   -0.548338
      8          1           0       -0.936484    0.000131    1.948768
      9          1           0        1.218266    0.003438    3.174854
     10          1           0        1.236295   -0.017084   -1.781507
     11          6           0        3.758396    0.052222    2.150130
     12          1           0        3.743924   -0.656648    2.987894
     13          1           0        3.886703    1.047911    2.601910
     14          6           0        4.690424   -0.182149    1.431525
     15          6           0        5.970838   -0.432903    1.942866
     16          6           0        7.060725   -0.660486    1.102697
     17          6           0        6.877669   -0.642554   -0.284889
     18          6           0        5.612743   -0.406375   -0.817896
     19          6           0        4.532854   -0.181207    0.041228
     20          1           0        6.109242   -0.442749    3.021693
     21          1           0        8.042839   -0.850118    1.524529
     22          1           0        7.717094   -0.817907   -0.951029
     23          1           0        5.439541   -0.395796   -1.889066
     24          8           0        3.558992   -0.016569   -0.754755
 ---------------------------------------------------------------------
                    Distance matrix (angstroms):
                    1          2          3          4          5
     1  C    0.000000
     2  C    1.399724   0.000000
     3  C    2.414372   1.394823   0.000000
     4  C    2.818172   2.440340   1.401359   0.000000
     5  C    2.411919   2.783263   2.397369   1.399198   0.000000
     6  C    1.392808   2.418657   2.784016   2.441484   1.398198
     7  H    1.085876   2.161804   3.401805   3.904035   3.395490
     8  H    2.162105   1.085565   2.154592   3.419579   3.868801
     9  H    3.400571   2.152968   1.087713   2.146995   3.381800
    10  H    2.168521   3.413055   3.868768   3.410739   2.143400
    11  C    4.330280   3.832933   2.546052   1.512665   2.528611
    12  H    4.834838   4.119519   2.764915   2.150725   3.325308
    13  H    4.793174   4.201170   2.916891   2.146031   3.163198
    14  C    4.907395   4.694068   3.542729   2.257819   2.690820
    15  C    6.293889   6.011099   4.779014   3.597081   4.071766
    16  C    7.176769   7.097767   5.966036   4.677882   4.819642
    17  C    6.913492   7.110072   6.174180   4.793548   4.520222
    18  C    5.686562   6.048625   5.287383   3.897892   3.330206
    19  C    4.536662   4.735516   3.903296   2.507000   2.128195
    20  H    6.830043   6.336374   5.003610   4.032196   4.787983
    21  H    8.230076   8.088606   6.904851   5.668272   5.891286
    22  H    7.818374   8.108548   7.224557   5.838732   5.452068
    23  H    5.771814   6.368783   5.815934   4.476102   3.595242
    24  O    3.638180   4.160346   3.684743   2.436428   1.379090
                    6          7          8          9         10
     6  C    0.000000
     7  H    2.148343   0.000000
     8  H    3.404296   2.497106   0.000000
     9  H    3.871728   4.302145   2.479163   0.000000
    10  H    1.085134   2.499069   4.316968   4.956436   0.000000
    11  C    3.824122   5.416047   4.699485   2.739471   4.671570
    12  H    4.521013   5.903415   4.839149   2.617177   5.426272
    13  H    4.379835   5.855904   4.978712   2.922285   5.231942
    14  C    4.086807   5.968588   5.653571   3.889669   4.720363
    15  C    5.463792   7.356341   6.920885   4.929009   6.038191
    16  C    6.159775   8.193327   8.068928   6.234497   6.531200
    17  C    5.721987   7.845767   8.152500   6.664531   5.869938
    18  C    4.426449   6.568163   7.121240   5.951591   4.498154
    19  C    3.412213   5.504792   5.795278   4.565107   3.770490
    20  H    6.169200   7.911686   7.140698   4.913673   6.855474
    21  H    7.237897   9.255407   9.029460   7.072972   7.612678
    22  H    6.566279   8.702289   9.163102   7.741595   6.582687
    23  H    4.415353   6.528261   7.452478   6.604683   4.221643
    24  O    2.353789   4.501017   5.245819   4.573973   2.539515
                   11         12         13         14         15
    11  C    0.000000
    12  H    1.097522   0.000000
    13  H    1.100893   1.753537   0.000000
    14  C    1.200000   1.882365   1.878514   0.000000
    15  C    2.274468   2.470079   2.640221   1.401359   0.000000
    16  C    3.537010   3.815121   3.903930   2.440340   1.394823
    17  C    4.017698   4.531189   4.487445   2.818172   2.414372
    18  C    3.529603   4.247253   4.097467   2.441484   2.784016
    19  C    2.258704   3.087279   2.912959   1.399198   2.397369
    20  H    2.555600   2.375210   2.708867   2.146995   1.087712
    21  H    4.422901   4.545277   4.694330   3.419579   2.154592
    22  H    5.103490   5.597071   5.547662   3.904034   3.401804
    23  H    4.397962   5.169903   4.966332   3.410739   3.868767
    24  O    2.912534   3.801490   3.536625   2.467261   3.642458
                   16         17         18         19         20
    16  C    0.000000
    17  C    1.399724   0.000000
    18  C    2.418657   1.392808   0.000000
    19  C    2.783264   2.411919   1.398198   0.000000
    20  H    2.152968   3.400571   3.871727   3.381800   0.000000
    21  H    1.085565   2.162105   3.404296   3.868801   2.479163
    22  H    2.161804   1.085876   2.148342   3.395490   4.302145
    23  H    3.413055   2.168521   1.085134   2.143400   4.956435
    24  O    4.015830   3.409729   2.091371   1.268504   4.576785
                   21         22         23         24
    21  H    0.000000
    22  H    2.497106   0.000000
    23  H    4.316966   2.499067   0.000000
    24  O    5.098512   4.239161   2.228663   0.000000
 Symmetry turned off by external request.
 Stoichiometry    C13H10O
 Framework group  C1[X(C13H10O)]
 Deg. of freedom    66
 Full point group                 C1      NOp   1
 Rotational constants (GHZ):           2.0713993           0.5018611           0.4070163
 Standard basis: 6-31++G(d,p) (6D, 7F)
   326 basis functions,   528 primitive gaussians,   326 cartesian basis functions
    48 alpha electrons       48 beta electrons
       nuclear repulsion energy       825.2750746488 Hartrees.
 NAtoms=   24 NActive=   24 NUniq=   24 SFac= 1.00D+00 NAtFMM=   60 NAOKFM=F Big=F
 Integral buffers will be    131072 words long.
 Raffenetti 2 integral format.
 Two-electron integral symmetry is turned off.
 One-electron integrals computed using PRISM.
 NBasis=   326 RedAO= T EigKep=  1.44D-06  NBF=   326
 NBsUse=   322 1.00D-06 EigRej=  7.07D-07 NBFU=   322
 Initial guess from the checkpoint file:  "C:\Users\Administrator\Desktop\dataset_dft\C12H8O1\C12H8O1.chk"
 B after Tr=     0.051959   -0.001435    0.004898
         Rot=    0.999992   -0.000630   -0.003906    0.000935 Ang=  -0.47 deg.
 ExpMin= 3.60D-02 ExpMax= 5.48D+03 ExpMxC= 8.25D+02 IAcc=3 IRadAn=         5 AccDes= 0.00D+00
 Harris functional with IExCor=  402 and IRadAn=       5 diagonalized for initial guess.
 HarFok:  IExCor=  402 AccDes= 0.00D+00 IRadAn=         5 IDoV= 1 UseB2=F ITyADJ=14
 ICtDFT=  3500011 ScaDFX=  1.000000  1.000000  1.000000  1.000000
 FoFCou: FMM=F IPFlag=           0 FMFlag=      100000 FMFlg1=           0
         NFxFlg=           0 DoJE=T BraDBF=F KetDBF=T FulRan=T
         wScrn=  0.000000 ICntrl=       500 IOpCl=  0 I1Cent=   200000004 NGrid=           0
         NMat0=    1 NMatS0=      1 NMatT0=    0 NMatD0=    1 NMtDS0=    0 NMtDT0=    0
 Symmetry not used in FoFCou.
 Requested convergence on RMS density matrix=1.00D-08 within 128 cycles.
 Requested convergence on MAX density matrix=1.00D-06.
 Requested convergence on             energy=1.00D-06.
 No special actions if energy rises.
 SCF Done:  E(RB3LYP) =  -576.539648847     A.U. after   14 cycles
            NFock= 14  Conv=0.50D-08     -V/T= 2.0069
 Variable Step   Value    
 -------- ---- -----------
    13       3    2.456644
 ---------------------------------------------------------------------------------------------------
                            Z-MATRIX (ANGSTROMS AND DEGREES)
   CD    Cent   Atom    N1       Length/X        N2       Alpha/Y        N3        Beta/Z          J
 ---------------------------------------------------------------------------------------------------
      1      1  C 
      2      2  C        1   1.399724(     1)
      3      3  C        2   1.394823(     2)      1  119.528(    24)
      4      4  C        3   1.401359(     3)      2  121.557(    25)      1    0.145(    46)      0
      5      5  C        4   1.399198(     4)      3  117.748(    26)      2   -0.685(    47)      0
      6      6  C        1   1.392808(     5)      2  120.021(    27)      3    0.374(    48)      0
      7      7  H        1   1.085876(     6)      6  119.649(    28)      5 -179.993(    49)      0
      8      8  H        2   1.085565(     7)      1  120.382(    29)      6 -179.634(    50)      0
      9      9  H        3   1.087713(     8)      2  119.770(    30)      1  179.791(    51)      0
     10     10  H        6   1.085134(     9)      1  121.626(    31)      2  179.441(    52)      0
     11     11  C        4   1.512665(    10)      3  121.742(    32)      2  177.809(    53)      0
     12     12  H       11   1.097522(    11)      4  109.950(    33)      3   45.378(    54)      0
     13     13  H       11   1.100893(    12)      4  109.383(    34)      3  -70.405(    55)      0
     14     14  C       11   1.300000(    13)      4  112.164(    35)      3  168.048(    56)      0
     15     15  C       14   1.401359(    14)     11  121.742(    36)      4 -168.044(    57)      0
     16     16  C       15   1.394823(    15)     14  121.557(    37)     11 -177.811(    58)      0
     17     17  C       16   1.399724(    16)     15  119.528(    38)     14   -0.154(    59)      0
     18     18  C       17   1.392808(    17)     16  120.021(    39)     15   -0.370(    60)      0
     19     19  C       18   1.398198(    18)     17  119.577(    40)     16    0.335(    61)      0
     20     20  H       15   1.087712(    19)     14  118.672(    41)     11    1.841(    62)      0
     21     21  H       16   1.085565(    20)     15  120.090(    42)     14  179.858(    63)      0
     22     22  H       17   1.085876(    21)     16  120.330(    43)     15  179.989(    64)      0
     23     23  H       18   1.085134(    22)     17  121.626(    44)     16 -179.429(    65)      0
     24     24  O        5   1.379090(    23)      4  122.552(    45)      3 -179.528(    66)      0
 ---------------------------------------------------------------------------------------------------
                         Z-Matrix orientation:                         
 ---------------------------------------------------------------------
 Center     Atomic      Atomic             Coordinates (Angstroms)
 Number     Number       Type             X           Y           Z
 ---------------------------------------------------------------------
      1          6           0        0.000000    0.000000    0.000000
      2          6           0        0.000000    0.000000    1.399724
      3          6           0        1.213659    0.000000    2.087157
      4          6           0        2.440319    0.003028    1.409585
      5          6           0        2.411880   -0.008726    0.010726
      6          6           0        1.205931   -0.007872   -0.696837
      7          1           0       -0.937257    0.000555   -0.548338
      8          1           0       -0.936484    0.000131    1.948768
      9          1           0        1.218266    0.003438    3.174854
     10          1           0        1.236295   -0.017084   -1.781507
     11          6           0        3.758396    0.052222    2.150130
     12          1           0        3.743924   -0.656648    2.987894
     13          1           0        3.886703    1.047911    2.601910
     14          6           0        4.768093   -0.201680    1.371641
     15          6           0        6.048507   -0.452434    1.882983
     16          6           0        7.138394   -0.680017    1.042814
     17          6           0        6.955338   -0.662085   -0.344773
     18          6           0        5.690413   -0.425906   -0.877780
     19          6           0        4.610523   -0.200737   -0.018655
     20          1           0        6.186911   -0.462279    2.961809
     21          1           0        8.120508   -0.869649    1.464645
     22          1           0        7.794763   -0.837438   -1.010913
     23          1           0        5.517210   -0.415326   -1.948949
     24          8           0        3.558992   -0.016569   -0.754755
 ---------------------------------------------------------------------
                    Distance matrix (angstroms):
                    1          2          3          4          5
     1  C    0.000000
     2  C    1.399724   0.000000
     3  C    2.414372   1.394823   0.000000
     4  C    2.818172   2.440340   1.401359   0.000000
     5  C    2.411919   2.783263   2.397369   1.399198   0.000000
     6  C    1.392808   2.418657   2.784016   2.441484   1.398198
     7  H    1.085876   2.161804   3.401805   3.904035   3.395490
     8  H    2.162105   1.085565   2.154592   3.419579   3.868801
     9  H    3.400571   2.152968   1.087713   2.146995   3.381800
    10  H    2.168521   3.413055   3.868768   3.410739   2.143400
    11  C    4.330280   3.832933   2.546052   1.512665   2.528611
    12  H    4.834838   4.119519   2.764915   2.150725   3.325308
    13  H    4.793174   4.201170   2.916891   2.146031   3.163198
    14  C    4.965560   4.772439   3.631342   2.337067   2.727832
    15  C    6.350965   6.084626   4.860261   3.667502   4.114278
    16  C    7.246140   7.179587   6.054384   4.761615   4.884237
    17  C    6.995281   7.201275   6.270528   4.889330   4.603941
    18  C    5.773447   6.144039   5.386425   3.997391   3.422318
    19  C    4.614928   4.827941   4.001678   2.605989   2.207207
    20  H    6.874873   6.397787   5.070696   4.082017   4.813051
    21  H    8.297236   8.167200   6.989162   5.747100   5.953446
    22  H    7.904529   8.201878   7.321904   5.935931   5.541295
    23  H    5.866047   6.467280   5.914660   4.574061   3.694419
    24  O    3.638180   4.160346   3.684743   2.436428   1.379090
                    6          7          8          9         10
     6  C    0.000000
     7  H    2.148343   0.000000
     8  H    3.404296   2.497106   0.000000
     9  H    3.871728   4.302145   2.479163   0.000000
    10  H    1.085134   2.499069   4.316968   4.956436   0.000000
    11  C    3.824122   5.416047   4.699485   2.739471   4.671570
    12  H    4.521013   5.903415   4.839149   2.617177   5.426272
    13  H    4.379835   5.855904   4.978712   2.922285   5.231942
    14  C    4.123732   6.023142   5.737248   3.986844   4.738145
    15  C    5.504875   7.410629   6.999946   5.020755   6.064272
    16  C    6.218703   8.259000   8.153956   6.329346   6.576551
    17  C    5.797208   7.922978   8.244981   6.763482   5.931921
    18  C    4.507556   6.649542   7.217107   6.050477   4.563225
    19  C    3.476834   5.576643   5.889006   4.663432   3.811402
    20  H    6.196961   7.955445   7.209912   4.994969   6.870650
    21  H    7.295618   9.319467   9.111532   7.164359   7.658770
    22  H    6.648273   8.784326   9.257209   7.840793   6.654344
    23  H    4.507874   6.617765   7.550826   6.701466   4.302658
    24  O    2.353789   4.501017   5.245819   4.573973   2.539515
                   11         12         13         14         15
    11  C    0.000000
    12  H    1.097522   0.000000
    13  H    1.100893   1.753537   0.000000
    14  C    1.300000   1.966772   1.962623   0.000000
    15  C    2.360223   2.563910   2.727872   1.401359   0.000000
    16  C    3.631351   3.912328   3.998751   2.440340   1.394823
    17  C    4.117671   4.628162   4.585144   2.818172   2.414372
    18  C    3.623470   4.334224   4.187332   2.441484   2.784016
    19  C    2.343873   3.161991   2.991722   1.399198   2.397369
    20  H    2.611746   2.450846   2.775096   2.146995   1.087712
    21  H    4.510849   4.638982   4.784926   3.419579   2.154592
    22  H    5.203456   5.694949   5.646235   3.904034   3.401804
    23  H    4.484917   5.251210   5.050737   3.410739   3.868767
    24  O    2.912534   3.801490   3.536625   2.453111   3.653125
                   16         17         18         19         20
    16  C    0.000000
    17  C    1.399724   0.000000
    18  C    2.418657   1.392808   0.000000
    19  C    2.783264   2.411919   1.398198   0.000000
    20  H    2.152968   3.400571   3.871727   3.381800   0.000000
    21  H    1.085565   2.162105   3.404296   3.868801   2.479163
    22  H    2.161804   1.085876   2.148342   3.395490   4.302145
    23  H    3.413055   2.168521   1.085134   2.143400   4.956435
    24  O    4.059992   3.481371   2.173855   1.296718   4.573561
                   21         22         23         24
    21  H    0.000000
    22  H    2.497106   0.000000
    23  H    4.316966   2.499067   0.000000
    24  O    5.144018   4.322176   2.328031   0.000000
 Symmetry turned off by external request.
 Stoichiometry    C13H10O
 Framework group  C1[X(C13H10O)]
 Deg. of freedom    66
 Full point group                 C1      NOp   1
 Rotational constants (GHZ):           2.0697600           0.4877540           0.3976723
 Standard basis: 6-31++G(d,p) (6D, 7F)
   326 basis functions,   528 primitive gaussians,   326 cartesian basis functions
    48 alpha electrons       48 beta electrons
       nuclear repulsion energy       817.9851970545 Hartrees.
 NAtoms=   24 NActive=   24 NUniq=   24 SFac= 1.00D+00 NAtFMM=   60 NAOKFM=F Big=F
 Integral buffers will be    131072 words long.
 Raffenetti 2 integral format.
 Two-electron integral symmetry is turned off.
 One-electron integrals computed using PRISM.
 NBasis=   326 RedAO= T EigKep=  1.56D-06  NBF=   326
 NBsUse=   322 1.00D-06 EigRej=  9.78D-07 NBFU=   322
 Initial guess from the checkpoint file:  "C:\Users\Administrator\Desktop\dataset_dft\C12H8O1\C12H8O1.chk"
 B after Tr=     0.052551   -0.001705    0.004211
         Rot=    0.999992   -0.000622   -0.003818    0.000912 Ang=  -0.46 deg.
 ExpMin= 3.60D-02 ExpMax= 5.48D+03 ExpMxC= 8.25D+02 IAcc=3 IRadAn=         5 AccDes= 0.00D+00
 Harris functional with IExCor=  402 and IRadAn=       5 diagonalized for initial guess.
 HarFok:  IExCor=  402 AccDes= 0.00D+00 IRadAn=         5 IDoV= 1 UseB2=F ITyADJ=14
 ICtDFT=  3500011 ScaDFX=  1.000000  1.000000  1.000000  1.000000
 FoFCou: FMM=F IPFlag=           0 FMFlag=      100000 FMFlg1=           0
         NFxFlg=           0 DoJE=T BraDBF=F KetDBF=T FulRan=T
         wScrn=  0.000000 ICntrl=       500 IOpCl=  0 I1Cent=   200000004 NGrid=           0
         NMat0=    1 NMatS0=      1 NMatT0=    0 NMatD0=    1 NMtDS0=    0 NMtDT0=    0
 Symmetry not used in FoFCou.
 Requested convergence on RMS density matrix=1.00D-08 within 128 cycles.
 Requested convergence on MAX density matrix=1.00D-06.
 Requested convergence on             energy=1.00D-06.
 No special actions if energy rises.
 SCF Done:  E(RB3LYP) =  -576.618454582     A.U. after   14 cycles
            NFock= 14  Conv=0.37D-08     -V/T= 2.0081
 Variable Step   Value    
 -------- ---- -----------
    13       4    2.645617
 ---------------------------------------------------------------------------------------------------
                            Z-MATRIX (ANGSTROMS AND DEGREES)
   CD    Cent   Atom    N1       Length/X        N2       Alpha/Y        N3        Beta/Z          J
 ---------------------------------------------------------------------------------------------------
      1      1  C 
      2      2  C        1   1.399724(     1)
      3      3  C        2   1.394823(     2)      1  119.528(    24)
      4      4  C        3   1.401359(     3)      2  121.557(    25)      1    0.145(    46)      0
      5      5  C        4   1.399198(     4)      3  117.748(    26)      2   -0.685(    47)      0
      6      6  C        1   1.392808(     5)      2  120.021(    27)      3    0.374(    48)      0
      7      7  H        1   1.085876(     6)      6  119.649(    28)      5 -179.993(    49)      0
      8      8  H        2   1.085565(     7)      1  120.382(    29)      6 -179.634(    50)      0
      9      9  H        3   1.087713(     8)      2  119.770(    30)      1  179.791(    51)      0
     10     10  H        6   1.085134(     9)      1  121.626(    31)      2  179.441(    52)      0
     11     11  C        4   1.512665(    10)      3  121.742(    32)      2  177.809(    53)      0
     12     12  H       11   1.097522(    11)      4  109.950(    33)      3   45.378(    54)      0
     13     13  H       11   1.100893(    12)      4  109.383(    34)      3  -70.405(    55)      0
     14     14  C       11   1.400000(    13)      4  112.164(    35)      3  168.048(    56)      0
     15     15  C       14   1.401359(    14)     11  121.742(    36)      4 -168.044(    57)      0
     16     16  C       15   1.394823(    15)     14  121.557(    37)     11 -177.811(    58)      0
     17     17  C       16   1.399724(    16)     15  119.528(    38)     14   -0.154(    59)      0
     18     18  C       17   1.392808(    17)     16  120.021(    39)     15   -0.370(    60)      0
     19     19  C       18   1.398198(    18)     17  119.577(    40)     16    0.335(    61)      0
     20     20  H       15   1.087712(    19)     14  118.672(    41)     11    1.841(    62)      0
     21     21  H       16   1.085565(    20)     15  120.090(    42)     14  179.858(    63)      0
     22     22  H       17   1.085876(    21)     16  120.330(    43)     15  179.989(    64)      0
     23     23  H       18   1.085134(    22)     17  121.626(    44)     16 -179.429(    65)      0
     24     24  O        5   1.379090(    23)      4  122.552(    45)      3 -179.528(    66)      0
 ---------------------------------------------------------------------------------------------------
                         Z-Matrix orientation:                         
 ---------------------------------------------------------------------
 Center     Atomic      Atomic             Coordinates (Angstroms)
 Number     Number       Type             X           Y           Z
 ---------------------------------------------------------------------
      1          6           0        0.000000    0.000000    0.000000
      2          6           0        0.000000    0.000000    1.399724
      3          6           0        1.213659    0.000000    2.087157
      4          6           0        2.440319    0.003028    1.409585
      5          6           0        2.411880   -0.008726    0.010726
      6          6           0        1.205931   -0.007872   -0.696837
      7          1           0       -0.937257    0.000555   -0.548338
      8          1           0       -0.936484    0.000131    1.948768
      9          1           0        1.218266    0.003438    3.174854
     10          1           0        1.236295   -0.017084   -1.781507
     11          6           0        3.758396    0.052222    2.150130
     12          1           0        3.743924   -0.656648    2.987894
     13          1           0        3.886703    1.047911    2.601910
     14          6           0        4.845762   -0.221211    1.311758
     15          6           0        6.126176   -0.471965    1.823099
     16          6           0        7.216063   -0.699548    0.982930
     17          6           0        7.033007   -0.681616   -0.404657
     18          6           0        5.768082   -0.445437   -0.937664
     19          6           0        4.688192   -0.220268   -0.078539
     20          1           0        6.264580   -0.481810    2.901925
     21          1           0        8.198177   -0.889180    1.404761
     22          1           0        7.872432   -0.856969   -1.070797
     23          1           0        5.594879   -0.434857   -2.008833
     24          8           0        3.558992   -0.016569   -0.754755
 ---------------------------------------------------------------------
                    Distance matrix (angstroms):
                    1          2          3          4          5
     1  C    0.000000
     2  C    1.399724   0.000000
     3  C    2.414372   1.394823   0.000000
     4  C    2.818172   2.440340   1.401359   0.000000
     5  C    2.411919   2.783263   2.397369   1.399198   0.000000
     6  C    1.392808   2.418657   2.784016   2.441484   1.398198
     7  H    1.085876   2.161804   3.401805   3.904035   3.395490
     8  H    2.162105   1.085565   2.154592   3.419579   3.868801
     9  H    3.400571   2.152968   1.087713   2.146995   3.381800
    10  H    2.168521   3.413055   3.868768   3.410739   2.143400
    11  C    4.330280   3.832933   2.546052   1.512665   2.528611
    12  H    4.834838   4.119519   2.764915   2.150725   3.325308
    13  H    4.793174   4.201170   2.916891   2.146031   3.163198
    14  C    5.025043   4.851607   3.720532   2.417853   2.767963
    15  C    6.409093   6.158898   4.942196   3.739272   4.158760
    16  C    7.316220   7.261862   6.143089   4.845965   4.950009
    17  C    7.077538   7.292707   6.366989   4.985278   4.688299
    18  C    5.860750   6.239596   5.485501   4.096914   3.514861
    19  C    4.694021   4.920663   4.100139   2.705053   2.287863
    20  H    6.920857   6.460163   5.138851   4.133657   4.840056
    21  H    8.365053   8.246258   7.073882   5.826577   6.016625
    22  H    7.991007   8.295364   7.419322   6.033220   5.630883
    23  H    5.960469   6.565823   6.013429   4.672107   3.793639
    24  O    3.638180   4.160346   3.684743   2.436428   1.379090
                    6          7          8          9         10
     6  C    0.000000
     7  H    2.148343   0.000000
     8  H    3.404296   2.497106   0.000000
     9  H    3.871728   4.302145   2.479163   0.000000
    10  H    1.085134   2.499069   4.316968   4.956436   0.000000
    11  C    3.824122   5.416047   4.699485   2.739471   4.671570
    12  H    4.521013   5.903415   4.839149   2.617177   5.426272
    13  H    4.379835   5.855904   4.978712   2.922285   5.231942
    14  C    4.162732   6.078853   5.821439   4.084156   4.757962
    15  C    5.547456   7.465860   7.079536   5.112810   6.091882
    16  C    6.278671   8.325356   8.239321   6.424351   6.623102
    17  C    5.873169   8.000694   8.337636   6.862464   5.994930
    18  C    4.589409   6.731422   7.313085   6.149399   4.629540
    19  C    3.543098   5.649349   5.982937   4.761827   3.854474
    20  H    6.226205   8.000215   7.279842   5.076932   6.887245
    21  H    7.354245   9.384156   9.193958   7.255974   7.705885
    22  H    6.730754   8.866732   9.351438   7.940012   6.726725
    23  H    4.600708   6.707565   7.649217   6.798343   4.384457
    24  O    2.353789   4.501017   5.245819   4.573973   2.539515
                   11         12         13         14         15
    11  C    0.000000
    12  H    1.097522   0.000000
    13  H    1.100893   1.753537   0.000000
    14  C    1.400000   2.052581   2.048160   0.000000
    15  C    2.447060   2.658191   2.816347   1.401359   0.000000
    16  C    3.725986   4.009672   4.093818   2.440340   1.394823
    17  C    4.217646   4.725261   4.682941   2.818172   2.414372
    18  C    3.717657   4.421745   4.277646   2.441484   2.784016
    19  C    2.430173   3.238068   3.071721   1.399198   2.397369
    20  H    2.670457   2.528174   2.843300   2.146995   1.087712
    21  H    4.599290   4.732944   4.875889   3.419579   2.154592
    22  H    5.303423   5.792899   5.744857   3.904034   3.401804
    23  H    4.572406   5.333152   5.135701   3.410739   3.868767
    24  O    2.912534   3.801490   3.536625   2.442976   3.666490
                   16         17         18         19         20
    16  C    0.000000
    17  C    1.399724   0.000000
    18  C    2.418657   1.392808   0.000000
    19  C    2.783264   2.411919   1.398198   0.000000
    20  H    2.152968   3.400571   3.871727   3.381800   0.000000
    21  H    1.085565   2.162105   3.404296   3.868801   2.479163
    22  H    2.161804   1.085876   2.148342   3.395490   4.302145
    23  H    3.413055   2.168521   1.085134   2.143400   4.956435
[...]
    24  O    3.638180   4.160346   3.684743   2.436428   1.379090
                    6          7          8          9         10
     6  C    0.000000
     7  H    2.148343   0.000000
     8  H    3.404296   2.497106   0.000000
     9  H    3.871728   4.302145   2.479163   0.000000
    10  H    1.085134   2.499069   4.316968   4.956436   0.000000
    11  C    3.824122   5.416047   4.699485   2.739471   4.671570
    12  H    4.521013   5.903415   4.839149   2.617177   5.426272
    13  H    4.379835   5.855904   4.978712   2.922285   5.231942
    14  C    4.957412   7.033175   7.133462   5.555300   5.278355
    15  C    6.342997   8.394279   8.326387   6.521779   6.674249
    16  C    7.284455   9.392477   9.553927   7.864305   7.448644
    17  C    7.084594   9.218133   9.744900   8.350102   7.043563
    18  C    5.884882   8.009164   8.763556   7.636603   5.742563
    19  C    4.683068   6.823359   7.410981   6.243878   4.712726
    20  H    6.827526   8.781709   8.402090   6.368528   7.297866
    21  H    8.328757  10.421667  10.467170   8.652506   8.522860
    22  H    8.015972  10.140867  10.777369   9.430269   7.885227
    23  H    6.020820   8.083359   9.129284   8.260427   5.681765
    24  O    2.353789   4.501017   5.245819   4.573973   2.539515
                   11         12         13         14         15
    11  C    0.000000
    12  H    1.097522   0.000000
    13  H    1.100893   1.753537   0.000000
    14  C    2.900000   3.433150   3.426518   0.000000
    15  C    3.827512   4.105016   4.205903   1.401359   0.000000
    16  C    5.169812   5.481321   5.540703   2.440340   1.394823
    17  C    5.717368   6.192841   6.158390   2.818172   2.414372
    18  C    5.156795   5.783323   5.671497   2.441484   2.784016
    19  C    3.806012   4.493161   4.371672   1.399198   2.397369
    20  H    3.766062   3.816671   4.028933   2.146995   1.087712
    21  H    5.969852   6.165213   6.273438   3.419579   2.154592
    22  H    6.803047   7.268856   7.228734   3.904034   3.401804
    23  H    5.932374   6.622092   6.462016   3.410739   3.868767
    24  O    2.912534   3.801490   3.536625   2.761120   4.160595
                   16         17         18         19         20
    16  C    0.000000
    17  C    1.399724   0.000000
    18  C    2.418657   1.392808   0.000000
    19  C    2.783264   2.411919   1.398198   0.000000
    20  H    2.152968   3.400571   3.871727   3.381800   0.000000
    21  H    1.085565   2.162105   3.404296   3.868801   2.479163
    22  H    2.161804   1.085876   2.148342   3.395490   4.302145
    23  H    3.413055   2.168521   1.085134   2.143400   4.956435
    24  O    4.990973   4.768548   3.615892   2.357858   4.813055
                   21         22         23         24
    21  H    0.000000
    22  H    2.497106   0.000000
    23  H    4.316966   2.499067   0.000000
    24  O    6.052960   5.724747   3.922286   0.000000
 Symmetry turned off by external request.
 Stoichiometry    C13H10O
 Framework group  C1[X(C13H10O)]
 Deg. of freedom    66
 Full point group                 C1      NOp   1
 Rotational constants (GHZ):           2.0359159           0.3116582           0.2719828
 Standard basis: 6-31++G(d,p) (6D, 7F)
   326 basis functions,   528 primitive gaussians,   326 cartesian basis functions
    48 alpha electrons       48 beta electrons
       nuclear repulsion energy       731.8560309268 Hartrees.
 NAtoms=   24 NActive=   24 NUniq=   24 SFac= 1.00D+00 NAtFMM=   60 NAOKFM=F Big=F
 Integral buffers will be    131072 words long.
 Raffenetti 2 integral format.
 Two-electron integral symmetry is turned off.
 One-electron integrals computed using PRISM.
 NBasis=   326 RedAO= T EigKep=  2.09D-06  NBF=   326
 NBsUse=   324 1.00D-06 EigRej=  9.54D-07 NBFU=   324
 Initial guess from the checkpoint file:  "C:\Users\Administrator\Desktop\dataset_dft\C12H8O1\C12H8O1.chk"
 B after Tr=     0.059473   -0.005405   -0.006432
         Rot=    0.999996   -0.000480   -0.002626    0.000623 Ang=  -0.31 deg.
 ExpMin= 3.60D-02 ExpMax= 5.48D+03 ExpMxC= 8.25D+02 IAcc=3 IRadAn=         5 AccDes= 0.00D+00
 Harris functional with IExCor=  402 and IRadAn=       5 diagonalized for initial guess.
 HarFok:  IExCor=  402 AccDes= 0.00D+00 IRadAn=         5 IDoV= 1 UseB2=F ITyADJ=14
 ICtDFT=  3500011 ScaDFX=  1.000000  1.000000  1.000000  1.000000
 FoFCou: FMM=F IPFlag=           0 FMFlag=      100000 FMFlg1=           0
         NFxFlg=           0 DoJE=T BraDBF=F KetDBF=T FulRan=T
         wScrn=  0.000000 ICntrl=       500 IOpCl=  0 I1Cent=   200000004 NGrid=           0
         NMat0=    1 NMatS0=      1 NMatT0=    0 NMatD0=    1 NMtDS0=    0 NMtDT0=    0
 Symmetry not used in FoFCou.
 Requested convergence on RMS density matrix=1.00D-08 within 128 cycles.
 Requested convergence on MAX density matrix=1.00D-06.
 Requested convergence on             energy=1.00D-06.
 No special actions if energy rises.
 SCF Done:  E(RB3LYP) =  -576.342678091     A.U. after   18 cycles
            NFock= 18  Conv=0.87D-08     -V/T= 2.0107
 Variable Step   Value    
 -------- ---- -----------
    13      20    5.669178
 ---------------------------------------------------------------------------------------------------
                            Z-MATRIX (ANGSTROMS AND DEGREES)
   CD    Cent   Atom    N1       Length/X        N2       Alpha/Y        N3        Beta/Z          J
 ---------------------------------------------------------------------------------------------------
      1      1  C 
      2      2  C        1   1.399724(     1)
      3      3  C        2   1.394823(     2)      1  119.528(    24)
      4      4  C        3   1.401359(     3)      2  121.557(    25)      1    0.145(    46)      0
      5      5  C        4   1.399198(     4)      3  117.748(    26)      2   -0.685(    47)      0
      6      6  C        1   1.392808(     5)      2  120.021(    27)      3    0.374(    48)      0
      7      7  H        1   1.085876(     6)      6  119.649(    28)      5 -179.993(    49)      0
      8      8  H        2   1.085565(     7)      1  120.382(    29)      6 -179.634(    50)      0
      9      9  H        3   1.087713(     8)      2  119.770(    30)      1  179.791(    51)      0
     10     10  H        6   1.085134(     9)      1  121.626(    31)      2  179.441(    52)      0
     11     11  C        4   1.512665(    10)      3  121.742(    32)      2  177.809(    53)      0
     12     12  H       11   1.097522(    11)      4  109.950(    33)      3   45.378(    54)      0
     13     13  H       11   1.100893(    12)      4  109.383(    34)      3  -70.405(    55)      0
     14     14  C       11   3.000000(    13)      4  112.164(    35)      3  168.048(    56)      0
     15     15  C       14   1.401359(    14)     11  121.742(    36)      4 -168.044(    57)      0
     16     16  C       15   1.394823(    15)     14  121.557(    37)     11 -177.811(    58)      0
     17     17  C       16   1.399724(    16)     15  119.528(    38)     14   -0.154(    59)      0
     18     18  C       17   1.392808(    17)     16  120.021(    39)     15   -0.370(    60)      0
     19     19  C       18   1.398198(    18)     17  119.577(    40)     16    0.335(    61)      0
     20     20  H       15   1.087712(    19)     14  118.672(    41)     11    1.841(    62)      0
     21     21  H       16   1.085565(    20)     15  120.090(    42)     14  179.858(    63)      0
     22     22  H       17   1.085876(    21)     16  120.330(    43)     15  179.989(    64)      0
     23     23  H       18   1.085134(    22)     17  121.626(    44)     16 -179.429(    65)      0
     24     24  O        5   1.379090(    23)      4  122.552(    45)      3 -179.528(    66)      0
 ---------------------------------------------------------------------------------------------------
                         Z-Matrix orientation:                         
 ---------------------------------------------------------------------
 Center     Atomic      Atomic             Coordinates (Angstroms)
 Number     Number       Type             X           Y           Z
 ---------------------------------------------------------------------
      1          6           0        0.000000    0.000000    0.000000
      2          6           0        0.000000    0.000000    1.399724
      3          6           0        1.213659    0.000000    2.087157
      4          6           0        2.440319    0.003028    1.409585
      5          6           0        2.411880   -0.008726    0.010726
      6          6           0        1.205931   -0.007872   -0.696837
      7          1           0       -0.937257    0.000555   -0.548338
      8          1           0       -0.936484    0.000131    1.948768
      9          1           0        1.218266    0.003438    3.174854
     10          1           0        1.236295   -0.017084   -1.781507
     11          6           0        3.758396    0.052222    2.150130
     12          1           0        3.743924   -0.656648    2.987894
     13          1           0        3.886703    1.047911    2.601910
     14          6           0        6.088467   -0.533705    0.353617
     15          6           0        7.368880   -0.784459    0.864958
     16          6           0        8.458767   -1.012042    0.024789
     17          6           0        8.275712   -0.994110   -1.362797
     18          6           0        7.010786   -0.757931   -1.895804
     19          6           0        5.930896   -0.532762   -1.036680
     20          1           0        7.507284   -0.794304    1.943785
     21          1           0        9.440882   -1.201674    0.446621
     22          1           0        9.115137   -1.169463   -2.028937
     23          1           0        6.837584   -0.747351   -2.966973
     24          8           0        3.558992   -0.016569   -0.754755
 ---------------------------------------------------------------------
                    Distance matrix (angstroms):
                    1          2          3          4          5
     1  C    0.000000
     2  C    1.399724   0.000000
     3  C    2.414372   1.394823   0.000000
     4  C    2.818172   2.440340   1.401359   0.000000
     5  C    2.411919   2.783263   2.397369   1.399198   0.000000
     6  C    1.392808   2.418657   2.784016   2.441484   1.398198
     7  H    1.085876   2.161804   3.401805   3.904035   3.395490
     8  H    2.162105   1.085565   2.154592   3.419579   3.868801
     9  H    3.400571   2.152968   1.087713   2.146995   3.381800
    10  H    2.168521   3.413055   3.868768   3.410739   2.143400
    11  C    4.330280   3.832933   2.546052   1.512665   2.528611
    12  H    4.834838   4.119519   2.764915   2.150725   3.325308
    13  H    4.793174   4.201170   2.916891   2.146031   3.163198
    14  C    6.122035   6.200694   5.201323   3.835640   3.729675
    15  C    7.460826   7.429788   6.324231   5.020705   5.089532
    16  C    8.519130   8.629335   7.600604   6.258574   6.129575
    17  C    8.445879   8.781070   7.922312   6.536987   6.102629
    18  C    7.302031   7.783706   7.074258   5.691558   5.034492
    19  C    6.044342   6.433928   5.682827   4.295977   3.708794
    20  H    7.795417   7.568767   6.345171   5.157058   5.506087
    21  H    9.527525   9.564658   8.474820   7.168437   7.142829
    22  H    9.411161   9.808623   8.985724   7.599432   7.102196
    23  H    7.490929   8.147339   7.598112   6.249262   5.385083
    24  O    3.638180   4.160346   3.684743   2.436428   1.379090
                    6          7          8          9         10
     6  C    0.000000
     7  H    2.148343   0.000000
     8  H    3.404296   2.497106   0.000000
     9  H    3.871728   4.302145   2.479163   0.000000
    10  H    1.085134   2.499069   4.316968   4.956436   0.000000
    11  C    3.824122   5.416047   4.699485   2.739471   4.671570
    12  H    4.521013   5.903415   4.839149   2.617177   5.426272
    13  H    4.379835   5.855904   4.978712   2.922285   5.231942
    14  C    5.021863   7.103503   7.223533   5.653915   5.326276
    15  C    6.405016   8.462008   8.412449   6.617134   6.723187
    16  C    7.357495   9.467792   9.643492   7.961091   7.511108
    17  C    7.169237   9.302230   9.839692   8.449433   7.119219
    18  C    5.974651   8.097058   8.860840   7.735926   5.822943
    19  C    4.766162   6.906116   7.507182   6.342982   4.781210
    20  H    6.877384   8.840405   8.481060   6.457838   7.335337
    21  H    8.399230  10.494811  10.554170   8.746826   8.583883
    22  H    8.104278  10.227988  10.873140   9.529728   7.966514
    23  H    6.116850   8.176632   9.228184   8.358377   5.771746
    24  O    2.353789   4.501017   5.245819   4.573973   2.539515
                   11         12         13         14         15
    11  C    0.000000
    12  H    1.097522   0.000000
    13  H    1.100893   1.753537   0.000000
    14  C    3.000000   3.528656   3.521945   0.000000
    15  C    3.922665   4.202797   4.301179   1.401359   0.000000
    16  C    5.267183   5.579968   5.638149   2.440340   1.394823
    17  C    5.817354   6.291224   6.257168   2.818172   2.414372
    18  C    5.253948   5.876492   5.766315   2.441484   2.784016
    19  C    3.900990   4.582073   4.462801   1.399198   2.397369
    20  H    3.848811   3.907940   4.115276   2.146995   1.087712
    21  H    6.063402   6.261825   6.368266   3.419579   2.154592
    22  H    6.903028   7.367598   7.327893   3.904034   3.401804
    23  H    6.025402   6.711140   6.553101   3.410739   3.868767
    24  O    2.912534   3.801490   3.536625   2.809655   4.210508
                   16         17         18         19         20
    16  C    0.000000
    17  C    1.399724   0.000000
    18  C    2.418657   1.392808   0.000000
    19  C    2.783264   2.411919   1.398198   0.000000
    20  H    2.152968   3.400571   3.871727   3.381800   0.000000
    21  H    1.085565   2.162105   3.404296   3.868801   2.479163
    22  H    2.161804   1.085876   2.148342   3.395490   4.302145
    23  H    3.413055   2.168521   1.085134   2.143400   4.956435
    24  O    5.060282   4.855177   3.710322   2.443741   4.845204
                   21         22         23         24
    21  H    0.000000
    22  H    2.497106   0.000000
    23  H    4.316966   2.499067   0.000000
    24  O    6.119184   5.815793   4.022079   0.000000
 Symmetry turned off by external request.
 Stoichiometry    C13H10O
 Framework group  C1[X(C13H10O)]
 Deg. of freedom    66
 Full point group                 C1      NOp   1
 Rotational constants (GHZ):           2.0337624           0.3034065           0.2656576
 Standard basis: 6-31++G(d,p) (6D, 7F)
   326 basis functions,   528 primitive gaussians,   326 cartesian basis functions
    48 alpha electrons       48 beta electrons
       nuclear repulsion energy       727.9177846903 Hartrees.
 NAtoms=   24 NActive=   24 NUniq=   24 SFac= 1.00D+00 NAtFMM=   60 NAOKFM=F Big=F
 Integral buffers will be    131072 words long.
 Raffenetti 2 integral format.
 Two-electron integral symmetry is turned off.
 One-electron integrals computed using PRISM.
 NBasis=   326 RedAO= T EigKep=  2.24D-06  NBF=   326
 NBsUse=   324 1.00D-06 EigRej=  9.96D-07 NBFU=   324
 Initial guess from the checkpoint file:  "C:\Users\Administrator\Desktop\dataset_dft\C12H8O1\C12H8O1.chk"
 B after Tr=     0.059771   -0.005597   -0.007036
         Rot=    0.999996   -0.000471   -0.002566    0.000609 Ang=  -0.31 deg.
 ExpMin= 3.60D-02 ExpMax= 5.48D+03 ExpMxC= 8.25D+02 IAcc=3 IRadAn=         5 AccDes= 0.00D+00
 Harris functional with IExCor=  402 and IRadAn=       5 diagonalized for initial guess.
 HarFok:  IExCor=  402 AccDes= 0.00D+00 IRadAn=         5 IDoV= 1 UseB2=F ITyADJ=14
 ICtDFT=  3500011 ScaDFX=  1.000000  1.000000  1.000000  1.000000
 FoFCou: FMM=F IPFlag=           0 FMFlag=      100000 FMFlg1=           0
         NFxFlg=           0 DoJE=T BraDBF=F KetDBF=T FulRan=T
         wScrn=  0.000000 ICntrl=       500 IOpCl=  0 I1Cent=   200000004 NGrid=           0
         NMat0=    1 NMatS0=      1 NMatT0=    0 NMatD0=    1 NMtDS0=    0 NMtDT0=    0
 Symmetry not used in FoFCou.
 Requested convergence on RMS density matrix=1.00D-08 within 128 cycles.
 Requested convergence on MAX density matrix=1.00D-06.
 Requested convergence on             energy=1.00D-06.
 No special actions if energy rises.
 SCF Done:  E(RB3LYP) =  -576.335843111     A.U. after   18 cycles
            NFock= 18  Conv=0.72D-08     -V/T= 2.0107
 Scan completed.
 
 Summary of the potential surface scan:
   N      B13         SCF    
 ----  ---------  -----------
    1     1.0000   -576.17109
    2     1.1000   -576.40124
    3     1.2000   -576.53965
    4     1.3000   -576.61845
    5     1.4000   -576.65772
    6     1.5000   -576.67022
    7     1.6000   -576.66449
    8     1.7000   -576.64646
    9     1.8000   -576.62041
   10     1.9000   -576.58954
   11     2.0000   -576.55629
   12     2.1000   -576.52252
   13     2.2000   -576.48955
   14     2.3000   -576.45842
   15     2.4000   -576.42992
   16     2.5000   -576.40468
   17     2.6000   -576.38322
   18     2.7000   -576.36584
   19     2.8000   -576.35247
   20     2.9000   -576.34268
   21     3.0000   -576.33584
 ----  ---------  -----------
  
 1|1|UNPC-BF-202112021916|Scan|RB3LYP|6-31++G(d,p)|C13H10O1|ADMINISTRAT
 OR|22-Mar-2023|1||# scan b3lyp/6-31++g(d,p) nosymm||Title Card Require
 d||0,1|C|C,1,B1|C,2,B2,1,A1|C,3,B3,2,A2,1,D1,0|C,4,B4,3,A3,2,D2,0|C,1,
 B5,2,A4,3,D3,0|H,1,B6,6,A5,5,D4,0|H,2,B7,1,A6,6,D5,0|H,3,B8,2,A7,1,D6,
 0|H,6,B9,1,A8,2,D7,0|C,4,B10,3,A9,2,D8,0|H,11,B11,4,A10,3,D9,0|H,11,B1
 2,4,A11,3,D10,0|C,11,B13,4,A12,3,D11,0|C,14,B14,11,A13,4,D12,0|C,15,B1
 5,14,A14,11,D13,0|C,16,B16,15,A15,14,D14,0|C,17,B17,16,A16,15,D15,0|C,
 18,B18,17,A17,16,D16,0|H,15,B19,14,A18,11,D17,0|H,16,B20,15,A19,14,D18
 ,0|H,17,B21,16,A20,15,D19,0|H,18,B22,17,A21,16,D20,0|O,5,B23,4,A22,3,D
 21,0||B1=1.3997239|B2=1.39482312|B3=1.4013591|B4=1.39919779|B5=1.39280
 797|B6=1.08587562|B7=1.08556515|B8=1.08771251|B9=1.08513367|B10=1.5126
 6511|B11=1.0975216|B12=1.10089306|B13=1.,s,20,0.1|B14=1.40135866|B15=1
 .39482294|B16=1.39972408|B17=1.39280783|B18=1.39819779|B19=1.08771249|
 B20=1.08556513|B21=1.0858756|B22=1.08513367|B23=1.37909008|A1=119.5278
 1845|A2=121.55709213|A3=117.74802768|A4=120.02057514|A5=119.64896541|A
 6=120.38231777|A7=119.77035128|A8=121.62600857|A9=121.74197682|A10=109
 .9499947|A11=109.38255963|A12=112.16387941|A13=121.74203506|A14=121.55
 707246|A15=119.52782|A16=120.02057775|A17=119.57728084|A18=118.6716467
 8|A19=120.08985678|A20=120.32954394|A21=121.6259947|A22=122.55232084|D
 1=0.14527143|D2=-0.68499733|D3=0.37402258|D4=-179.99291488|D5=-179.634
 0071|D6=179.79138251|D7=179.44107968|D8=177.80900624|D9=45.37781746|D1
 0=-70.40478136|D11=168.04846937|D12=-168.04420133|D13=-177.81138673|D1
 4=-0.15417152|D15=-0.36976752|D16=0.33522198|D17=1.84070955|D18=179.85
 793801|D19=179.98899364|D20=-179.42853229|D21=-179.52758219||Version=E
 M64W-G16RevA.03|HF=-576.171094,-576.4012418,-576.5396488,-576.6184546,
 -576.6577214,-576.670217,-576.664493,-576.6464625,-576.6204112,-576.58
 95449,-576.5562941,-576.52252,-576.4895474,-576.4584206,-576.4299182,-
 576.4046757,-576.3832173,-576.3658392,-576.3524656,-576.3426781,-576.3
 358431|RMSD=6.023e-009,8.609e-009,4.953e-009,3.659e-009,5.200e-009,5.2
 23e-009,3.562e-009,8.455e-009,6.407e-009,6.251e-009,7.764e-009,5.109e-
 009,7.656e-009,6.538e-009,4.971e-009,2.474e-009,4.227e-009,5.533e-009,
 7.022e-009,8.741e-009,7.200e-009|PG=C01 [X(C13H10O1)]||@


 FLOATING POINT NUMBERS ARE LIKE SANDPILES:
 EVERY TIME THAT YOU MOVE ONE, YOU LOSE A LITTLE SAND 
 AND YOU PICK UP A LITTLE DIRT.
 Job cpu time:       0 days  1 hours  3 minutes  2.0 seconds.
 Elapsed time:       0 days  1 hours  2 minutes 20.5 seconds.
 File lengths (MBytes):  RWF=     76 Int=      0 D2E=      0 Chk=     15 Scr=      1
 Normal termination of Gaussian 16 at Wed Mar 22 17:26:18 2023.
