 Entering Link 1 = I:\G16W\l1.exe PID=     14188.
  
 Copyright (c) 1988,1990,1992,1993,1995,1998,2003,2009,2016,
            Gaussian, Inc.  All Rights Reserved.
  
 This is part of the Gaussian(R) 16 program.  It is based on
 the Gaussian(R) 09 system (copyright 2009, Gaussian, Inc.),
 the Gaussian(R) 03 system (copyright 2003, Gaussian, Inc.),
 the Gaussian(R) 98 system (copyright 1998, Gaussian, Inc.),
 the Gaussian(R) 94 system (copyright 1995, Gaussian, Inc.),
 the Gaussian 92(TM) system (copyright 1992, Gaussian, Inc.),
 the Gaussian 90(TM) system (copyright 1990, Gaussian, Inc.),
 the Gaussian 88(TM) system (copyright 1988, Gaussian, Inc.),
 the Gaussian 86(TM) system (copyright 1986, Carnegie Mellon
 University), and the Gaussian 82(TM) system (copyright 1983,
 Carnegie Mellon University). Gaussian is a federally registered
 trademark of Gaussian, Inc.
  
 This software contains proprietary and confidential information,
 including trade secrets, belonging to Gaussian, Inc.
  
 This software is provided under written license and may be
 used, copied, transmitted, or stored only in accord with that
 written license.
  
 The following legend is applicable only to US Government
 contracts under FAR:
  
                    RESTRICTED RIGHTS LEGEND
  
 Use, reproduction and disclosure by the US Government is
 subject to restrictions as set forth in subparagraphs (a)
 and (c) of the Commercial Computer Software - Restricted
 Rights clause in FAR 52.227-19.
  
 Gaussian, Inc.
 340 Quinnipiac St., Bldg. 40, Wallingford CT 06492
  
  
 ---------------------------------------------------------------
 Warning -- This program may not be used in any manner that
 competes with the business of Gaussian, Inc. or will provide
 assistance to any competitor of Gaussian, Inc.  The licensee
 of this program is prohibited from giving any competitor of
 Gaussian, Inc. access to this program.  By using this program,
 the user acknowledges that Gaussian, Inc. is engaged in the
 business of creating and licensing software in the field of
 computational chemistry and represents and warrants to the
 licensee that it is not a competitor of Gaussian, Inc. and that
 it will not use this program in any manner prohibited above.
 ---------------------------------------------------------------
  

 Cite this work as:
 Gaussian 16, Revision A.03,
 M. J. Frisch, G. W. Trucks, H. B. Schlegel, G. E. Scuseria, 
 M. A. Robb, J. R. Cheeseman, G. Scalmani, V. Barone, 
 G. A. Petersson, H. Nakatsuji, X. Li, M. Caricato, A. V. Marenich, 
 J. Bloino, B. G. Janesko, R. Gomperts, B. Mennucci, H. P. Hratchian, 
 J. V. Ortiz, A. F. Izmaylov, J. L. Sonnenberg, D. Williams-Young, 
 F. Ding, F. Lipparini, F. Egidi, J. Goings, B. Peng, A. Petrone, 
 T. Henderson, D. Ranasinghe, V. G. Zakrzewski, J. Gao, N. Rega, 
 G. Zheng, W. Liang, M. Hada, M. Ehara, K. Toyota, R. Fukuda, 
 J. Hasegawa, M. Ishida, T. Nakajima, Y. Honda, O. Kitao, H. Nakai, 
 T. Vreven, K. Throssell, J. A. Montgomery, Jr., J. E. Peralta, 
 F. Ogliaro, M. J. Bearpark, J. J. Heyd, E. N. Brothers, K. N. Kudin, 
 V. N. Staroverov, T. A. Keith, R. Kobayashi, J. Normand, 
 K. Raghavachari, A. P. Rendell, J. C. Burant, S. S. Iyengar, 
 J. Tomasi, M. Cossi, J. M. Millam, M. Klene, C. Adamo, R. Cammi, 
 J. W. Ochterski, R. L. Martin, K. Morokuma, O. Farkas, 
 J. B. Foresman, and D. J. Fox, Gaussian, Inc., Wallingford CT, 2016.
 
 ******************************************
 Gaussian 16:  EM64W-G16RevA.03 17-Dec-2016
                22-Mar-2023 
 ******************************************
 %nprocshared=32
 Will use up to   32 processors via shared memory.
 %mem=600MW
 %chk=C:\Users\Administrator\Desktop\dataset_dft\C12H8O1\C12H8O1.chk
 --------------------------------
 # scan b3lyp/6-31++g(d,p) nosymm
 --------------------------------
 1/38=1,60=1,172=1/1,8;
 2/12=2,15=1,17=6,18=5,29=3,40=1/2;
 3/5=1,6=6,7=1111,11=2,25=1,30=1,74=-5/1,2,3;
 4//1;
 5/5=2,38=5/2;
 6/7=2,8=2,9=2,10=2,18=1,28=1/1;
 1/60=1/8(1);
 99/9=1/99;
 2/15=1,29=3/2;
 3/5=1,6=6,7=1111,11=2,25=1,30=1,74=-5/1,2,3;
 4/5=5,16=3,69=1/1;
 5/5=2,38=5/2;
 1/60=1/8(-4);
 99/9=1/99;
 -------------------
 Title Card Required
 -------------------
 Symbolic Z-matrix:
 Charge =  0 Multiplicity = 1
 C(PDBName=C,ResName=MOL,ResNum=1) 0    -4.3494   -0.025    -0.37767  L 
 C(PDBName=C,ResName=MOL,ResNum=1) 0    X1        0.41844   0.88636  L 
 C(PDBName=C,ResName=MOL,ResNum=1) 0    X2       Y1        1.18418  L 
 C(PDBName=C,ResName=MOL,ResNum=1) 3    B3       2    A2       1    D1       0    L 
 C(PDBName=C,ResName=MOL,ResNum=1) 4    B4       3    A3       2    D2       0    L 
 C(PDBName=C,ResName=MOL,ResNum=1) 5    B5       4    A4       3    D3       0    L 
 H(PDBName=H,ResName=MOL,ResNum=1) 1    B6       2    A5       3    D4       0    L 
 H(PDBName=H,ResName=MOL,ResNum=1) 2    B7       1    A6       6    D5       0    L 
 H(PDBName=H,ResName=MOL,ResNum=1) 3    B8       2    A7       1    D6       0    L 
 H(PDBName=H,ResName=MOL,ResNum=1) 5    B9       4    A8       3    D7       0    L 
 H(PDBName=H,ResName=MOL,ResNum=1) 6    B10      5    A9       4    D8       0    L 
 C(PDBName=C,ResName=MOL,ResNum=1) 4    B11      3    A10      2    D9       0    L 
 C(PDBName=C,ResName=MOL,ResNum=1) 12   B12      4    A11      3    D10      0    L 
 C(PDBName=C,ResName=MOL,ResNum=1) 13   B13      12   A12      4    D11      0    L 
 C(PDBName=C,ResName=MOL,ResNum=1) 14   B14      13   A13      12   D12      0    L 
 C(PDBName=C,ResName=MOL,ResNum=1) 15   B15      14   A14      13   D13      0    L 
 C(PDBName=C,ResName=MOL,ResNum=1) 16   B16      15   A15      14   D14      0    L 
 H(PDBName=H,ResName=MOL,ResNum=1) 13   B17      12   A16      4    D15      0    L 
 H(PDBName=H,ResName=MOL,ResNum=1) 14   B18      13   A17      12   D16      0    L 
 H(PDBName=H,ResName=MOL,ResNum=1) 15   B19      14   A18      13   D17      0    L 
 H(PDBName=H,ResName=MOL,ResNum=1) 16   B20      15   A19      14   D18      0    L 
 O(PDBName=O,ResName=MOL,ResNum=1) 12   B21      4    A20      3    D19      0    L 
 C(PDBName=C,ResName=MOL,ResNum=1) 17   B22      16   A21      15   D20      0    L 
 O(PDBName=O,ResName=MOL,ResNum=1) 23   B23      17   A22      16   D21      0    L 
 H(PDBName=H,ResName=MOL,ResNum=1) 24   B24      23   A23      17   D22      0    L 
 O(PDBName=O,ResName=MOL,ResNum=1) 23   B25      17   A24      16   D23      0    L 
       Variables:
  X1                   -3.95064                  
  X2                   -2.59504                  
  B3                    1.39519                  
  B4                    1.39769                  
  B5                    1.39634                  
  B6                    1.08562                  
  B7                    1.08605                  
  B8                    1.08499                  
  B9                    1.08498                  
  B10                   1.08614                  
  B11                   2.39732                  
  B12                   1.40133                  
  B13                   1.39279                  
  B14                   1.39861                  
  B15                   1.39121                  
  B16                   1.40733                  
  B17                   1.08404                  
  B18                   1.08624                  
  B19                   1.08509                  
  B20                   1.08337                  
  B21                   0.5    Scan 20    0.1    
  B22                   1.48826                  
  B23                   1.36657                  
  B24                   0.97148                  
  B25                   1.21395                  
  Y1                    0.57889                  
  A2                  119.29408                  
  A3                  121.02891                  
  A4                  119.09224                  
  A5                  120.22145                  
  A6                  120.14726                  
  A7                  121.56974                  
  A8                  119.9867                   
  A9                  119.35006                  
  A10                 133.96364                  
  A11                  95.82993                  
  A12                 120.1849                   
  A13                 120.50844                  
  A14                 119.31507                  
  A15                 121.40663                  
  A16                 119.27935                  
  A17                 119.26401                  
  A18                 120.53901                  
  A19                 120.21826                  
  A20                  29.65279                  
  A21                 119.79801                  
  A22                 111.97495                  
  A23                 105.91803                  
  A24                 126.90282                  
  D1                    0.13908                  
  D2                    0.58862                  
  D3                   -0.95314                  
  D4                  179.93532                  
  D5                  179.58058                  
  D6                  179.67559                  
  D7                  178.46875                  
  D8                  179.85904                  
  D9                 -154.30371                  
  D10                  86.98168                  
  D11                 169.03742                  
  D12                   0.68504                  
  D13                  -0.17995                  
  D14                  -0.87659                  
  D15                 -11.7236                   
  D16                 179.87244                  
  D17                 179.63661                  
  D18                 179.99041                  
  D19                 -64.95924                  
  D20                -176.69273                  
  D21                 -17.96287                  
  D22                 177.52366                  
  D23                 160.59173                  
 
 Center=     -0.21063422     -0.27667757     -0.03292173
 Residue   1 PDB Number     1_0 MOL charge    0.00000000 layers R        AvRTP=      0.00000000      0.00000000      0.00000000
 Scan the potential surface.
 Variable   Value     No. Steps Step-Size
 -------- ----------- --------- ---------
    21       0.500000      20      0.1000
 A total of     21 points will be computed.
 ---------------------------------------------------------------------------------------------------
                            Z-MATRIX (ANGSTROMS AND DEGREES)
   CD    Cent   Atom    N1       Length/X        N2       Alpha/Y        N3        Beta/Z          J
 ---------------------------------------------------------------------------------------------------
      1      1  C        0  -4.349400         -0.024999         -0.377670
      2      2  C        0  -3.950638          0.418442          0.886364
      3      3  C        0  -2.595040          0.578889          1.184183
      4      4  C        3   1.395189(     3)      2  119.294(    27)      1    0.139(    50)      0
      5      5  C        4   1.397688(     4)      3  121.029(    28)      2    0.589(    51)      0
      6      6  C        5   1.396344(     5)      4  119.092(    29)      3   -0.953(    52)      0
      7      7  H        1   1.085622(     6)      2  120.221(    30)      3  179.935(    53)      0
      8      8  H        2   1.086048(     7)      1  120.147(    31)      6  179.581(    54)      0
      9      9  H        3   1.084988(     8)      2  121.570(    32)      1  179.676(    55)      0
     10     10  H        5   1.084982(     9)      4  119.987(    33)      3  178.469(    56)      0
     11     11  H        6   1.086145(    10)      5  119.350(    34)      4  179.859(    57)      0
     12     12  C        4   2.397317(    11)      3  133.964(    35)      2 -154.304(    58)      0
     13     13  C       12   1.401326(    12)      4   95.830(    36)      3   86.982(    59)      0
     14     14  C       13   1.392793(    13)     12  120.185(    37)      4  169.037(    60)      0
     15     15  C       14   1.398607(    14)     13  120.508(    38)     12    0.685(    61)      0
     16     16  C       15   1.391211(    15)     14  119.315(    39)     13   -0.180(    62)      0
     17     17  C       16   1.407329(    16)     15  121.407(    40)     14   -0.877(    63)      0
     18     18  H       13   1.084040(    17)     12  119.279(    41)      4  -11.724(    64)      0
     19     19  H       14   1.086239(    18)     13  119.264(    42)     12  179.872(    65)      0
     20     20  H       15   1.085095(    19)     14  120.539(    43)     13  179.637(    66)      0
     21     21  H       16   1.083372(    20)     15  120.218(    44)     14  179.990(    67)      0
     22     22  O       12   0.500000(    21)      4   29.653(    45)      3  -64.959(    68)      0
     23     23  C       17   1.488261(    22)     16  119.798(    46)     15 -176.693(    69)      0
     24     24  O       23   1.366568(    23)     17  111.975(    47)     16  -17.963(    70)      0
     25     25  H       24   0.971483(    24)     23  105.918(    48)     17  177.524(    71)      0
     26     26  O       23   1.213950(    25)     17  126.903(    49)     16  160.592(    72)      0
 ---------------------------------------------------------------------------------------------------
                         Z-Matrix orientation:                         
 ---------------------------------------------------------------------
 Center     Atomic      Atomic             Coordinates (Angstroms)
 Number     Number       Type             X           Y           Z
 ---------------------------------------------------------------------
      1          6           0       -4.349400   -0.024999   -0.377670
      2          6           0       -3.950638    0.418442    0.886364
      3          6           0       -2.595040    0.578889    1.184183
      4          6           0       -1.642679    0.294471    0.205068
      5          6           0       -2.025134   -0.135414   -1.068690
      6          6           0       -3.382865   -0.298999   -1.350795
      7          1           0       -5.403476   -0.149654   -0.605616
      8          1           0       -4.694220    0.640241    1.646227
      9          1           0       -2.264557    0.926835    2.157278
     10          1           0       -1.271442   -0.328019   -1.825022
     11          1           0       -3.684882   -0.630663   -2.339984
     12          6           0        0.659553   -0.371188    0.266326
     13          6           0        0.407661   -1.746808    0.355398
     14          6           0        1.446179   -2.660785    0.194153
     15          6           0        2.751314   -2.217854   -0.043618
     16          6           0        3.003461   -0.851913   -0.121684
     17          6           0        1.970128    0.093608    0.015386
     18          1           0       -0.599792   -2.088964    0.563028
     19          1           0        1.234446   -3.723609    0.268246
     20          1           0        3.561787   -2.929330   -0.163477
     21          1           0        4.008932   -0.492661   -0.305155
     22          8           0        0.302246   -0.033642    0.357947
     23          6           0        2.267263    1.542770   -0.147586
     24          8           0        3.603049    1.807041   -0.032067
     25          1           0        3.700796    2.760380   -0.191345
     26          8           0        1.470820    2.428208   -0.382860
 ---------------------------------------------------------------------
                    Distance matrix (angstroms):
                    1          2          3          4          5
     1  C    0.000000
     2  C    1.397653   0.000000
     3  C    2.425251   1.397170   0.000000
     4  C    2.787110   2.409607   1.395189   0.000000
     5  C    2.427326   2.799385   2.431143   1.397688   0.000000
     6  C    1.398656   2.417016   2.795974   2.408560   1.396344
     7  H    1.085622   2.158582   3.409027   3.872732   3.409961
     8  H    2.158148   1.086048   2.150304   3.392403   3.885413
     9  H    3.417385   2.171763   1.084988   2.144234   3.404786
    10  H    3.414744   3.884187   3.410236   2.155592   1.084982
    11  H    2.158492   3.403024   3.882077   3.391719   2.148540
    12  C    5.062034   4.718244   3.512475   2.397317   3.007557
    13  C    5.111912   4.895406   3.887411   2.897122   3.247015
    14  C    6.392424   6.251914   5.273244   4.274892   4.474627
    15  C    7.439109   7.261617   6.157334   5.067622   5.310535
    16  C    7.403640   7.140690   5.924162   4.796622   5.166910
    17  C    6.332850   5.993295   4.737335   3.623355   4.146057
    18  H    4.382285   4.197595   3.388848   2.626121   2.917269
    19  H    6.728764   6.665115   5.832272   4.942348   5.028658
    20  H    8.430178   8.291337   7.213204   6.133122   6.311819
    21  H    8.371719   8.099665   6.854108   5.728928   6.092665
    22  O    4.709461   4.309365   3.074431   1.978324   2.731730
    23  C    6.803754   6.402770   5.132705   4.119498   4.699937
    24  O    8.168063   7.734980   6.434588   5.464592   6.043522
    25  H    8.520488   8.074068   6.803568   5.898354   6.476236
    26  O    6.316107   5.919653   4.733584   3.819996   4.389102
                    6          7          8          9         10
     6  C    0.000000
     7  H    2.158811   0.000000
     8  H    3.403522   2.489533   0.000000
     9  H    3.880703   4.318012   2.499314   0.000000
    10  H    2.164218   4.311899   4.970162   4.291812   0.000000
    11  H    1.086145   2.488567   4.303933   4.966738   2.486257
    12  C    4.354473   6.129411   5.620498   3.716313   2.846813
    13  C    4.401742   6.102767   5.778705   4.187587   3.096220
    14  C    5.593261   7.339154   7.121081   5.522177   4.111487
    15  C    6.558877   8.431719   8.152316   6.316009   4.788261
    16  C    6.526989   8.450086   8.037806   6.009129   4.631482
    17  C    5.538513   7.403706   6.882731   4.818145   3.751353
    18  H    3.822589   5.310559   5.038474   3.795803   3.042174
    19  H    5.972337   7.589387   7.489399   6.118668   4.710762
    20  H    7.520409   9.396703   9.174885   7.362214   5.734776
    21  H    7.467900   9.423447   8.990896   6.887322   5.497222
    22  O    4.070658   5.787675   5.203697   3.278504   2.707121
    23  C    6.063314   7.868566   7.245314   5.121442   4.340055
    24  O    7.414678   9.234452   8.545336   6.324302   5.615499
    25  H    7.802716   9.567010   8.851438   6.668085   6.077027
    26  O    5.650913   7.345130   6.732142   4.760196   4.146881
                   11         12         13         14         15
    11  H    0.000000
    12  C    5.072898   0.000000
    13  C    5.025910   1.401326   0.000000
    14  C    6.072152   2.422033   1.392793   0.000000
    15  C    7.015489   2.807437   2.423594   1.398607   0.000000
    16  C    7.050088   2.423954   2.786866   2.407675   1.391211
    17  C    6.168588   1.413016   2.438041   2.809477   2.440613
    18  H    4.480168   2.150520   1.084040   2.156164   3.408012
    19  H    6.369377   3.401357   2.144507   1.086239   2.159964
    20  H    7.907924   3.892529   3.408240   2.162363   1.085095
    21  H    7.959544   3.399954   3.870190   3.393784   2.150882
    22  O    4.851026   0.500000   1.716408   2.870068   3.306051
    23  C    6.705106   2.533632   3.812143   4.296608   3.793074
    24  O    8.023891   3.673947   4.794839   4.966360   4.114045
    25  H    8.406192   4.389230   5.608780   5.883956   5.070124
    26  O    6.306210   2.986003   4.371051   5.121660   4.831215
                   16         17         18         19         20
    16  C    0.000000
    17  C    1.407329   0.000000
    18  H    3.870731   3.415849   0.000000
    19  H    3.395305   3.895679   2.474548   0.000000
    20  H    2.151543   3.421041   4.307292   2.496754   0.000000
    21  H    1.083372   2.145502   4.954015   4.297160   2.481404
    22  O    2.862896   1.707446   2.253903   3.806954   4.391070
    23  C    2.505427   1.488261   4.681289   5.382785   4.655719
    24  O    2.727191   2.367390   5.761672   6.023998   4.738373
    25  H    3.679645   3.185847   6.525356   6.952425   5.691476
    26  O    3.629930   2.420385   5.058358   6.190692   5.755301
                   21         22         23         24         25
    21  H    0.000000
    22  O    3.793405   0.000000
    23  C    2.683509   2.569422   0.000000
    24  O    2.351159   3.799411   1.366568   0.000000
    25  H    3.269583   4.433782   1.881357   0.971483   0.000000
    26  O    3.870339   2.824016   1.213950   2.248400   2.262700
                   26
    26  O    0.000000
 Symmetry turned off by external request.
 Stoichiometry    C13H10O3
 Framework group  C1[X(C13H10O3)]
 Deg. of freedom    72
 Full point group                 C1      NOp   1
 Rotational constants (GHZ):           1.0103552           0.3364750           0.2769689
 Standard basis: 6-31++G(d,p) (6D, 7F)
   364 basis functions,   592 primitive gaussians,   364 cartesian basis functions
    56 alpha electrons       56 beta electrons
       nuclear repulsion energy      1044.3666692318 Hartrees.
 NAtoms=   26 NActive=   26 NUniq=   26 SFac= 1.00D+00 NAtFMM=   60 NAOKFM=F Big=F
 Integral buffers will be    131072 words long.
 Raffenetti 2 integral format.
 Two-electron integral symmetry is turned off.
 One-electron integrals computed using PRISM.
 NBasis=   364 RedAO= T EigKep=  1.93D-06  NBF=   364
 NBsUse=   362 1.00D-06 EigRej=  9.88D-07 NBFU=   362
 ExpMin= 3.60D-02 ExpMax= 5.48D+03 ExpMxC= 8.25D+02 IAcc=3 IRadAn=         5 AccDes= 0.00D+00
 Harris functional with IExCor=  402 and IRadAn=       5 diagonalized for initial guess.
 HarFok:  IExCor=  402 AccDes= 0.00D+00 IRadAn=         5 IDoV= 1 UseB2=F ITyADJ=14
 ICtDFT=  3500011 ScaDFX=  1.000000  1.000000  1.000000  1.000000
 FoFCou: FMM=F IPFlag=           0 FMFlag=      100000 FMFlg1=           0
         NFxFlg=           0 DoJE=T BraDBF=F KetDBF=T FulRan=T
         wScrn=  0.000000 ICntrl=       500 IOpCl=  0 I1Cent=   200000004 NGrid=           0
         NMat0=    1 NMatS0=      1 NMatT0=    0 NMatD0=    1 NMtDS0=    0 NMtDT0=    0
 Symmetry not used in FoFCou.
 Requested convergence on RMS density matrix=1.00D-08 within 128 cycles.
 Requested convergence on MAX density matrix=1.00D-06.
 Requested convergence on             energy=1.00D-06.
 No special actions if energy rises.
 EnCoef did    11 forward-backward iterations
 EnCoef did   100 forward-backward iterations
 EnCoef did     9 forward-backward iterations
 EnCoef did     3 forward-backward iterations
 Restarting incremental Fock formation.
 SCF Done:  E(RB3LYP) =  -720.798063699     A.U. after   24 cycles
            NFock= 24  Conv=0.80D-08     -V/T= 1.9829

 **********************************************************************

            Population analysis using the SCF density.

 **********************************************************************

 Alpha  occ. eigenvalues --  -19.77663 -19.18981 -19.13390 -11.03134 -10.31739
 Alpha  occ. eigenvalues --  -10.25361 -10.23331 -10.23302 -10.22904 -10.22894
 Alpha  occ. eigenvalues --  -10.22474 -10.20261 -10.19372 -10.18264 -10.16765
 Alpha  occ. eigenvalues --  -10.16433  -1.25856  -1.15092  -1.09706  -1.09050
 Alpha  occ. eigenvalues --   -1.00840  -0.88807  -0.84432  -0.78167  -0.77355
 Alpha  occ. eigenvalues --   -0.74078  -0.71843  -0.65004  -0.63794  -0.62501
 Alpha  occ. eigenvalues --   -0.57329  -0.54924  -0.54777  -0.51576  -0.49530
 Alpha  occ. eigenvalues --   -0.48100  -0.47578  -0.47176  -0.45997  -0.45599
 Alpha  occ. eigenvalues --   -0.44402  -0.43857  -0.40689  -0.40150  -0.39376
 Alpha  occ. eigenvalues --   -0.38672  -0.37883  -0.35885  -0.33968  -0.31594
 Alpha  occ. eigenvalues --   -0.28797  -0.28718  -0.27601  -0.26030  -0.20530
 Alpha  occ. eigenvalues --   -0.18497
 Alpha virt. eigenvalues --   -0.13341  -0.04760  -0.04175  -0.03557  -0.01647
 Alpha virt. eigenvalues --   -0.00193   0.00128   0.00613   0.01289   0.02051
 Alpha virt. eigenvalues --    0.02549   0.03464   0.03894   0.04732   0.04844
 Alpha virt. eigenvalues --    0.05861   0.05983   0.06784   0.07381   0.07544
 Alpha virt. eigenvalues --    0.08223   0.08773   0.08874   0.09512   0.09757
 Alpha virt. eigenvalues --    0.10267   0.10565   0.10787   0.11222   0.11482
 Alpha virt. eigenvalues --    0.11827   0.11992   0.12462   0.12549   0.12820
 Alpha virt. eigenvalues --    0.13014   0.13377   0.13558   0.14113   0.14591
 Alpha virt. eigenvalues --    0.14694   0.14839   0.16001   0.16798   0.16952
 Alpha virt. eigenvalues --    0.17508   0.17913   0.18477   0.18885   0.18936
 Alpha virt. eigenvalues --    0.19305   0.19973   0.20429   0.20658   0.20859
 Alpha virt. eigenvalues --    0.21607   0.22055   0.22797   0.23774   0.24021
 Alpha virt. eigenvalues --    0.24952   0.25041   0.25465   0.25538   0.25842
 Alpha virt. eigenvalues --    0.26311   0.26802   0.27164   0.27465   0.27991
 Alpha virt. eigenvalues --    0.28390   0.28520   0.28933   0.29627   0.30463
 Alpha virt. eigenvalues --    0.30628   0.31057   0.31864   0.32168   0.32498
 Alpha virt. eigenvalues --    0.33258   0.34040   0.34819   0.35113   0.35862
 Alpha virt. eigenvalues --    0.36206   0.36974   0.37559   0.37832   0.38174
 Alpha virt. eigenvalues --    0.39175   0.40515   0.40943   0.41349   0.42591
 Alpha virt. eigenvalues --    0.43552   0.44134   0.46377   0.48567   0.51746
 Alpha virt. eigenvalues --    0.54230   0.54787   0.58430   0.59811   0.62303
 Alpha virt. eigenvalues --    0.65651   0.67076   0.68006   0.68773   0.69158
 Alpha virt. eigenvalues --    0.70123   0.71084   0.71474   0.72259   0.73002
 Alpha virt. eigenvalues --    0.73369   0.74895   0.74918   0.76468   0.77001
 Alpha virt. eigenvalues --    0.77746   0.79500   0.80064   0.80674   0.81774
 Alpha virt. eigenvalues --    0.83314   0.85595   0.86046   0.87127   0.89106
 Alpha virt. eigenvalues --    0.90017   0.90526   0.91585   0.94697   0.96565
 Alpha virt. eigenvalues --    0.97030   0.97243   0.97904   0.99983   1.00368
 Alpha virt. eigenvalues --    1.00741   1.02270   1.03469   1.05178   1.06832
 Alpha virt. eigenvalues --    1.07050   1.08853   1.09981   1.10583   1.11588
 Alpha virt. eigenvalues --    1.11803   1.12173   1.15440   1.16664   1.17203
 Alpha virt. eigenvalues --    1.17816   1.19509   1.20388   1.21247   1.22372
 Alpha virt. eigenvalues --    1.23627   1.24134   1.26779   1.27509   1.28529
 Alpha virt. eigenvalues --    1.30206   1.30841   1.33411   1.35067   1.35577
 Alpha virt. eigenvalues --    1.37110   1.37400   1.37864   1.38384   1.38901
 Alpha virt. eigenvalues --    1.39982   1.40319   1.41120   1.41793   1.43225
 Alpha virt. eigenvalues --    1.44652   1.45969   1.47429   1.49333   1.55018
 Alpha virt. eigenvalues --    1.59755   1.60458   1.63918   1.67074   1.70233
 Alpha virt. eigenvalues --    1.72697   1.74511   1.77382   1.79931   1.80440
 Alpha virt. eigenvalues --    1.82487   1.83553   1.85012   1.85992   1.88252
 Alpha virt. eigenvalues --    1.89013   1.90843   1.93355   1.94401   1.95084
 Alpha virt. eigenvalues --    1.96084   1.96820   1.97701   1.98383   2.00567
 Alpha virt. eigenvalues --    2.01549   2.01801   2.03704   2.04426   2.06079
 Alpha virt. eigenvalues --    2.06551   2.07141   2.09651   2.09996   2.13436
 Alpha virt. eigenvalues --    2.23602   2.25480   2.26456   2.27829   2.29255
 Alpha virt. eigenvalues --    2.30276   2.33465   2.34944   2.35911   2.36379
 Alpha virt. eigenvalues --    2.37147   2.38787   2.39396   2.40240   2.41102
 Alpha virt. eigenvalues --    2.43170   2.44103   2.47566   2.48439   2.49813
 Alpha virt. eigenvalues --    2.50549   2.50957   2.51594   2.52917   2.55374
 Alpha virt. eigenvalues --    2.55937   2.56737   2.57260   2.57599   2.59502
 Alpha virt. eigenvalues --    2.60934   2.61989   2.62724   2.64480   2.67595
 Alpha virt. eigenvalues --    2.70329   2.70893   2.73621   2.74924   2.77160
 Alpha virt. eigenvalues --    2.79777   2.81190   2.83876   2.89121   2.92029
 Alpha virt. eigenvalues --    2.94489   2.97138   3.03634   3.08816   3.12705
 Alpha virt. eigenvalues --    3.15430   3.16355   3.22012   3.25734   3.26979
 Alpha virt. eigenvalues --    3.27691   3.30401   3.30685   3.38754   3.40381
 Alpha virt. eigenvalues --    3.42566   3.52157   3.52626   3.55187   3.85547
 Alpha virt. eigenvalues --    3.88364   4.01145   4.09940   4.26833   4.28301
 Alpha virt. eigenvalues --    4.29558   4.33076   4.35714   4.37896   4.40133
 Alpha virt. eigenvalues --    4.43526   4.46180   4.48549   4.55199   4.63960
 Alpha virt. eigenvalues --    4.64426   4.77562   4.82694   4.94227   6.82197
 Alpha virt. eigenvalues --   16.82462
          Condensed to atoms (all electrons):
               1          2          3          4          5          6
     1  C   21.536229  -1.736810  -9.766164 -15.191141   5.084844   7.170056
     2  C   -1.736810  13.306918  11.733982  -4.063384 -11.286992  -2.133447
     3  C   -9.766164  11.733982  49.992828   6.967883 -46.947977  -5.956627
     4  C  -15.191141  -4.063384   6.967883  78.662028 -38.212892 -21.933219
     5  C    5.084844 -11.286992 -46.947977 -38.212892  85.431777  10.150238
     6  C    7.170056  -2.133447  -5.956627 -21.933219  10.150238  19.696917
     7  H    0.877433  -0.161810  -0.238730  -0.171039   0.047370  -0.028489
     8  H   -0.530725   0.513404   0.437422   0.065385  -0.229544  -0.023828
     9  H    0.217873  -0.098768   0.051716  -0.237909   0.225036   0.115232
    10  H    0.274239  -0.116328  -0.626763  -0.882495   1.393446   0.193638
    11  H   -0.801931   0.144440   0.416621   0.872985  -0.234886  -0.188896
    12  C   -7.974858   4.472713  23.583085  51.488017 -57.066497 -13.023613
    13  C    3.716314  -0.964724  -3.078690 -19.043929  13.444689   4.754928
    14  C    1.217563  -0.759915  -3.411485 -10.764482  10.183875   2.481507
    15  C   -0.108495   0.165545   1.006707   2.420419  -2.753313  -0.388557
    16  C    0.255007  -0.307539  -2.272546  -3.664413   5.298235   0.726920
    17  C   -0.832285  -0.521773  -2.420557  12.252823  -4.854317  -1.702708
    18  H   -0.162180   0.184230   0.497771   0.786303  -0.951242  -0.277971
    19  H    0.006012  -0.010849  -0.028332  -0.088384   0.083831   0.019736
    20  H   -0.000456   0.000781   0.002713   0.009502  -0.009973  -0.001294
    21  H    0.004888  -0.003156  -0.019810  -0.096739   0.093568   0.016001
    22  O    2.979029  -2.042730 -12.870972 -33.221744  36.280736   6.368440
    23  C    0.061003  -0.224634  -1.289466  -0.869153   1.799944   0.203703
    24  O    0.000968  -0.002483  -0.028909  -0.030278   0.059074   0.004689
    25  H   -0.000253  -0.001086  -0.007696   0.007139   0.003225  -0.000731
    26  O    0.001859   0.009694   0.118218   0.144739  -0.235622  -0.004523
               7          8          9         10         11         12
     1  C    0.877433  -0.530725   0.217873   0.274239  -0.801931  -7.974858
     2  C   -0.161810   0.513404  -0.098768  -0.116328   0.144440   4.472713
     3  C   -0.238730   0.437422   0.051716  -0.626763   0.416621  23.583085
     4  C   -0.171039   0.065385  -0.237909  -0.882495   0.872985  51.488017
     5  C    0.047370  -0.229544   0.225036   1.393446  -0.234886 -57.066497
     6  C   -0.028489  -0.023828   0.115232   0.193638  -0.188896 -13.023613
     7  H    0.649237  -0.039966   0.003991   0.004543  -0.041649  -0.125750
     8  H   -0.039966   0.668007  -0.037860  -0.000443   0.011644   0.259052
     9  H    0.003991  -0.037860   0.652140  -0.005667  -0.002200  -0.408929
    10  H    0.004543  -0.000443  -0.005667   0.688440  -0.043842  -0.706281
    11  H   -0.041649   0.011644  -0.002200  -0.043842   0.670891   0.410366
    12  C   -0.125750   0.259052  -0.408929  -0.706281   0.410366 147.830395
    13  C    0.053936  -0.136138   0.181738   0.211120  -0.167776 -29.628106
    14  C    0.018022  -0.033748   0.034743   0.132465  -0.075882 -26.186328
    15  C   -0.001643   0.002713  -0.006835  -0.036650   0.009234   5.967875
    16  C    0.003853  -0.006050   0.021882   0.101720  -0.021501 -19.049911
    17  C   -0.005209   0.037346  -0.103856  -0.042328   0.036791  15.741863
    18  H   -0.005356   0.006048  -0.005257  -0.015747   0.009293   1.729166
    19  H    0.000115  -0.000113  -0.000057   0.002250  -0.000349  -0.366288
    20  H   -0.000006   0.000011  -0.000007  -0.000119   0.000055   0.111561
    21  H    0.000062  -0.000156   0.000702   0.000359  -0.000433  -0.202365
    22  O    0.039044  -0.096099   0.237220   0.295356  -0.146414 -85.113035
    23  C    0.002403  -0.002639   0.015293   0.032453  -0.004534  -4.788979
    24  O    0.000015  -0.000030   0.000171   0.001089  -0.000098  -0.361053
    25  H    0.000004   0.000020  -0.000010   0.000685   0.000006  -0.068502
    26  O    0.000043  -0.000022  -0.001624  -0.001003  -0.000035   0.839272
              13         14         15         16         17         18
     1  C    3.716314   1.217563  -0.108495   0.255007  -0.832285  -0.162180
     2  C   -0.964724  -0.759915   0.165545  -0.307539  -0.521773   0.184230
     3  C   -3.078690  -3.411485   1.006707  -2.272546  -2.420557   0.497771
     4  C  -19.043929 -10.764482   2.420419  -3.664413  12.252823   0.786303
     5  C   13.444689  10.183875  -2.753313   5.298235  -4.854317  -0.951242
     6  C    4.754928   2.481507  -0.388557   0.726920  -1.702708  -0.277971
     7  H    0.053936   0.018022  -0.001643   0.003853  -0.005209  -0.005356
     8  H   -0.136138  -0.033748   0.002713  -0.006050   0.037346   0.006048
     9  H    0.181738   0.034743  -0.006835   0.021882  -0.103856  -0.005257
    10  H    0.211120   0.132465  -0.036650   0.101720  -0.042328  -0.015747
    11  H   -0.167776  -0.075882   0.009234  -0.021501   0.036791   0.009293
    12  C  -29.628106 -26.186328   5.967875 -19.049911  15.741863   1.729166
    13  C   32.785751   6.197386  -1.066687  -1.544384 -19.986436  -0.275662
    14  C    6.197386  21.835767  -2.537557   2.935459  -6.784495  -0.936279
    15  C   -1.066687  -2.537557  12.584982  -4.862817   0.525135   0.095669
    16  C   -1.544384   2.935459  -4.862817  21.442908  -1.586561  -0.063864
    17  C  -19.986436  -6.784495   0.525135  -1.586561  37.608201   0.351316
    18  H   -0.275662  -0.936279   0.095669  -0.063864   0.351316   0.724602
    19  H   -0.112303   0.722192  -0.126917   0.101136   0.017835  -0.049105
    20  H    0.043052  -0.138584   0.469132  -0.163276   0.001583  -0.003465
    21  H    0.060788   0.047961  -0.121569   0.479681  -0.163633   0.001850
    22  O   22.656463  11.881686  -3.705236   6.121870 -20.292117  -0.792979
    23  C   -1.486424  -0.120638  -1.015762   1.577333  -1.242164  -0.007631
    24  O   -0.103471   0.021382   0.096451   0.104121  -0.113243  -0.001356
    25  H   -0.013192  -0.011620  -0.006738   0.038899   0.025999   0.000357
    26  O    0.059031   0.023365   0.049368  -0.339189  -0.156394  -0.000043
              19         20         21         22         23         24
     1  C    0.006012  -0.000456   0.004888   2.979029   0.061003   0.000968
     2  C   -0.010849   0.000781  -0.003156  -2.042730  -0.224634  -0.002483
     3  C   -0.028332   0.002713  -0.019810 -12.870972  -1.289466  -0.028909
     4  C   -0.088384   0.009502  -0.096739 -33.221744  -0.869153  -0.030278
     5  C    0.083831  -0.009973   0.093568  36.280736   1.799944   0.059074
     6  C    0.019736  -0.001294   0.016001   6.368440   0.203703   0.004689
     7  H    0.000115  -0.000006   0.000062   0.039044   0.002403   0.000015
     8  H   -0.000113   0.000011  -0.000156  -0.096099  -0.002639  -0.000030
     9  H   -0.000057  -0.000007   0.000702   0.237220   0.015293   0.000171
    10  H    0.002250  -0.000119   0.000359   0.295356   0.032453   0.001089
    11  H   -0.000349   0.000055  -0.000433  -0.146414  -0.004534  -0.000098
    12  C   -0.366288   0.111561  -0.202365 -85.113035  -4.788979  -0.361053
    13  C   -0.112303   0.043052   0.060788  22.656463  -1.486424  -0.103471
    14  C    0.722192  -0.138584   0.047961  11.881686  -0.120638   0.021382
    15  C   -0.126917   0.469132  -0.121569  -3.705236  -1.015762   0.096451
    16  C    0.101136  -0.163276   0.479681   6.121870   1.577333   0.104121
    17  C    0.017835   0.001583  -0.163633 -20.292117  -1.242164  -0.113243
    18  H   -0.049105  -0.003465   0.001850  -0.792979  -0.007631  -0.001356
    19  H    0.668991  -0.016796  -0.004550   0.074335  -0.018268   0.000151
    20  H   -0.016796   0.632247  -0.016721  -0.008201  -0.004313   0.001213
    21  H   -0.004550  -0.016721   0.645310   0.163234  -0.023941  -0.017263
    22  O    0.074335  -0.008201   0.163234  76.512695   2.122314   0.078073
    23  C   -0.018268  -0.004313  -0.023941   2.122314  10.326497   0.283104
    24  O    0.000151   0.001213  -0.017263   0.078073   0.283104   8.466356
    25  H   -0.000341   0.000119   0.001383   0.000789   0.055931   0.191463
    26  O    0.001152   0.000208  -0.012288  -0.402071   0.045771  -0.196921
              25         26
     1  C   -0.000253   0.001859
     2  C   -0.001086   0.009694
     3  C   -0.007696   0.118218
     4  C    0.007139   0.144739
     5  C    0.003225  -0.235622
     6  C   -0.000731  -0.004523
     7  H    0.000004   0.000043
     8  H    0.000020  -0.000022
     9  H   -0.000010  -0.001624
    10  H    0.000685  -0.001003
    11  H    0.000006  -0.000035
    12  C   -0.068502   0.839272
    13  C   -0.013192   0.059031
    14  C   -0.011620   0.023365
    15  C   -0.006738   0.049368
    16  C    0.038899  -0.339189
    17  C    0.025999  -0.156394
    18  H    0.000357  -0.000043
    19  H   -0.000341   0.001152
    20  H    0.000119   0.000208
    21  H    0.001383  -0.012288
    22  O    0.000789  -0.402071
    23  C    0.055931   0.045771
    24  O    0.191463  -0.196921
    25  H    0.401452  -0.001029
    26  O   -0.001029   8.544066
 Mulliken charges:
               1
     1  C   -0.298019
     2  C   -0.095275
     3  C    0.155778
     4  C    0.793979
     5  C   -0.796632
     6  C   -0.238103
     7  H    0.119577
     8  H    0.136308
     9  H    0.151243
    10  H    0.145862
    11  H    0.148103
    12  C   -1.362869
    13  C   -0.557272
    14  C    0.027643
    15  C   -0.654453
    16  C    0.673027
    17  C    0.209183
    18  H    0.161531
    19  H    0.124916
    20  H    0.091033
    21  H    0.166835
    22  O    0.880312
    23  C    0.572798
    24  O   -0.453214
    25  H    0.383730
    26  O   -0.486021
 Sum of Mulliken charges =   0.00000
 Mulliken charges with hydrogens summed into heavy atoms:
               1
     1  C   -0.178442
     2  C    0.041033
     3  C    0.307021
     4  C    0.793979
     5  C   -0.650770
     6  C   -0.089999
    12  C   -1.362869
    13  C   -0.395740
    14  C    0.152559
    15  C   -0.563421
    16  C    0.839863
    17  C    0.209183
    22  O    0.880312
    23  C    0.572798
    24  O   -0.069485
    26  O   -0.486021
 Electronic spatial extent (au):  <R**2>=           3916.0763
 Charge=              0.0000 electrons
 Dipole moment (field-independent basis, Debye):
    X=             -4.1453    Y=             -1.2428    Z=              0.4551  Tot=              4.3514
 Quadrupole moment (field-independent basis, Debye-Ang):
   XX=            -80.0310   YY=            -95.8642   ZZ=            -89.2335
   XY=              3.8272   XZ=             -1.3561   YZ=              3.2996
 Traceless Quadrupole moment (field-independent basis, Debye-Ang):
   XX=              8.3452   YY=             -7.4880   ZZ=             -0.8572
   XY=              3.8272   XZ=             -1.3561   YZ=              3.2996
 Octapole moment (field-independent basis, Debye-Ang**2):
  XXX=            -56.8223  YYY=             13.4688  ZZZ=              2.1079  XYY=             25.2253
  XXY=             30.2751  XXZ=             -7.8095  XZZ=            -19.4159  YZZ=             17.0371
  YYZ=              6.9018  XYZ=             -8.4606
 Hexadecapole moment (field-independent basis, Debye-Ang**3):
 XXXX=          -3462.0043 YYYY=          -1118.2395 ZZZZ=           -344.4999 XXXY=            118.6037
 XXXZ=            -42.5820 YYYX=            100.4166 YYYZ=              1.3985 ZZZX=             -3.9830
 ZZZY=             22.0757 XXYY=           -778.9568 XXZZ=           -677.5004 YYZZ=           -275.9926
 XXYZ=             25.0708 YYXZ=            -11.4057 ZZXY=             26.1189
 N-N= 1.044366669232D+03 E-N=-3.775993594661D+03  KE= 7.333608605631D+02
 Variable Step   Value    
 -------- ---- -----------
    21       1    1.133836
 ---------------------------------------------------------------------------------------------------
                            Z-MATRIX (ANGSTROMS AND DEGREES)
   CD    Cent   Atom    N1       Length/X        N2       Alpha/Y        N3        Beta/Z          J
 ---------------------------------------------------------------------------------------------------
      1      1  C        0  -4.349400         -0.024999         -0.377670
      2      2  C        0  -3.950638          0.418442          0.886364
      3      3  C        0  -2.595040          0.578889          1.184183
      4      4  C        3   1.395189(     3)      2  119.294(    27)      1    0.139(    50)      0
      5      5  C        4   1.397688(     4)      3  121.029(    28)      2    0.589(    51)      0
      6      6  C        5   1.396344(     5)      4  119.092(    29)      3   -0.953(    52)      0
      7      7  H        1   1.085622(     6)      2  120.221(    30)      3  179.935(    53)      0
      8      8  H        2   1.086048(     7)      1  120.147(    31)      6  179.581(    54)      0
      9      9  H        3   1.084988(     8)      2  121.570(    32)      1  179.676(    55)      0
     10     10  H        5   1.084982(     9)      4  119.987(    33)      3  178.469(    56)      0
     11     11  H        6   1.086145(    10)      5  119.350(    34)      4  179.859(    57)      0
     12     12  C        4   2.397317(    11)      3  133.964(    35)      2 -154.304(    58)      0
     13     13  C       12   1.401326(    12)      4   95.830(    36)      3   86.982(    59)      0
     14     14  C       13   1.392793(    13)     12  120.185(    37)      4  169.037(    60)      0
     15     15  C       14   1.398607(    14)     13  120.508(    38)     12    0.685(    61)      0
     16     16  C       15   1.391211(    15)     14  119.315(    39)     13   -0.180(    62)      0
     17     17  C       16   1.407329(    16)     15  121.407(    40)     14   -0.877(    63)      0
     18     18  H       13   1.084040(    17)     12  119.279(    41)      4  -11.724(    64)      0
     19     19  H       14   1.086239(    18)     13  119.264(    42)     12  179.872(    65)      0
     20     20  H       15   1.085095(    19)     14  120.539(    43)     13  179.637(    66)      0
     21     21  H       16   1.083372(    20)     15  120.218(    44)     14  179.990(    67)      0
     22     22  O       12   0.600000(    21)      4   29.653(    45)      3  -64.959(    68)      0
     23     23  C       17   1.488261(    22)     16  119.798(    46)     15 -176.693(    69)      0
     24     24  O       23   1.366568(    23)     17  111.975(    47)     16  -17.963(    70)      0
     25     25  H       24   0.971483(    24)     23  105.918(    48)     17  177.524(    71)      0
     26     26  O       23   1.213950(    25)     17  126.903(    49)     16  160.592(    72)      0
 ---------------------------------------------------------------------------------------------------
                         Z-Matrix orientation:                         
 ---------------------------------------------------------------------
 Center     Atomic      Atomic             Coordinates (Angstroms)
 Number     Number       Type             X           Y           Z
 ---------------------------------------------------------------------
      1          6           0       -4.349400   -0.024999   -0.377670
      2          6           0       -3.950638    0.418442    0.886364
      3          6           0       -2.595040    0.578889    1.184183
      4          6           0       -1.642679    0.294471    0.205068
      5          6           0       -2.025134   -0.135414   -1.068690
      6          6           0       -3.382865   -0.298999   -1.350795
      7          1           0       -5.403476   -0.149654   -0.605616
      8          1           0       -4.694220    0.640241    1.646227
      9          1           0       -2.264557    0.926835    2.157278
     10          1           0       -1.271442   -0.328019   -1.825022
     11          1           0       -3.684882   -0.630663   -2.339984
     12          6           0        0.659553   -0.371188    0.266326
     13          6           0        0.407661   -1.746808    0.355398
     14          6           0        1.446179   -2.660785    0.194153
     15          6           0        2.751314   -2.217854   -0.043618
     16          6           0        3.003461   -0.851913   -0.121684
     17          6           0        1.970128    0.093608    0.015386
     18          1           0       -0.599792   -2.088964    0.563028
     19          1           0        1.234446   -3.723609    0.268246
     20          1           0        3.561787   -2.929330   -0.163477
     21          1           0        4.008932   -0.492661   -0.305155
     22          8           0        0.230785    0.033867    0.376271
     23          6           0        2.267263    1.542770   -0.147586
     24          8           0        3.603049    1.807041   -0.032067
     25          1           0        3.700796    2.760380   -0.191345
     26          8           0        1.470820    2.428208   -0.382860
 ---------------------------------------------------------------------
                    Distance matrix (angstroms):
                    1          2          3          4          5
     1  C    0.000000
     2  C    1.397653   0.000000
     3  C    2.425251   1.397170   0.000000
     4  C    2.787110   2.409607   1.395189   0.000000
     5  C    2.427326   2.799385   2.431143   1.397688   0.000000
     6  C    1.398656   2.417016   2.795974   2.408560   1.396344
     7  H    1.085622   2.158582   3.409027   3.872732   3.409961
     8  H    2.158148   1.086048   2.150304   3.392403   3.885413
     9  H    3.417385   2.171763   1.084988   2.144234   3.404786
    10  H    3.414744   3.884187   3.410236   2.155592   1.084982
    11  H    2.158492   3.403024   3.882077   3.391719   2.148540
    12  C    5.062034   4.718244   3.512475   2.397317   3.007557
    13  C    5.111912   4.895406   3.887411   2.897122   3.247015
    14  C    6.392424   6.251914   5.273244   4.274892   4.474627
    15  C    7.439109   7.261617   6.157334   5.067622   5.310535
    16  C    7.403640   7.140690   5.924162   4.796622   5.166910
    17  C    6.332850   5.993295   4.737335   3.623355   4.146057
    18  H    4.382285   4.197595   3.388848   2.626121   2.917269
    19  H    6.728764   6.665115   5.832272   4.942348   5.028658
    20  H    8.430178   8.291337   7.213204   6.133122   6.311819
    21  H    8.371719   8.099665   6.854108   5.728928   6.092665
    22  O    4.642196   4.229940   2.989156   1.899234   2.684351
    23  C    6.803754   6.402770   5.132705   4.119498   4.699937
    24  O    8.168063   7.734980   6.434588   5.464592   6.043522
    25  H    8.520488   8.074068   6.803568   5.898354   6.476236
    26  O    6.316107   5.919653   4.733584   3.819996   4.389102
                    6          7          8          9         10
     6  C    0.000000
     7  H    2.158811   0.000000
     8  H    3.403522   2.489533   0.000000
     9  H    3.880703   4.318012   2.499314   0.000000
    10  H    2.164218   4.311899   4.970162   4.291812   0.000000
    11  H    1.086145   2.488567   4.303933   4.966738   2.486257
    12  C    4.354473   6.129411   5.620498   3.716313   2.846813
    13  C    4.401742   6.102767   5.778705   4.187587   3.096220
    14  C    5.593261   7.339154   7.121081   5.522177   4.111487
    15  C    6.558877   8.431719   8.152316   6.316009   4.788261
    16  C    6.526989   8.450086   8.037806   6.009129   4.631482
    17  C    5.538513   7.403706   6.882731   4.818145   3.751353
    18  H    3.822589   5.310559   5.038474   3.795803   3.042174
    19  H    5.972337   7.589387   7.489399   6.118668   4.710762
    20  H    7.520409   9.396703   9.174885   7.362214   5.734776
    21  H    7.467900   9.423447   8.990896   6.887322   5.497222
    22  O    4.018958   5.722122   5.122123   3.193134   2.689487
    23  C    6.063314   7.868566   7.245314   5.121442   4.340055
    24  O    7.414678   9.234452   8.545336   6.324302   5.615499
    25  H    7.802716   9.567010   8.851438   6.668085   6.077027
    26  O    5.650913   7.345130   6.732142   4.760196   4.146881
                   11         12         13         14         15
    11  H    0.000000
    12  C    5.072898   0.000000
    13  C    5.025910   1.401326   0.000000
    14  C    6.072152   2.422033   1.392793   0.000000
    15  C    7.015489   2.807437   2.423594   1.398607   0.000000
    16  C    7.050088   2.423954   2.786866   2.407675   1.391211
    17  C    6.168588   1.413016   2.438041   2.809477   2.440613
    18  H    4.480168   2.150520   1.084040   2.156164   3.408012
    19  H    6.369377   3.401357   2.144507   1.086239   2.159964
    20  H    7.907924   3.892529   3.408240   2.162363   1.085095
    21  H    7.959544   3.399954   3.870190   3.393784   2.150882
    22  O    4.811662   0.600000   1.789560   2.961672   3.405822
    23  C    6.705106   2.533632   3.812143   4.296608   3.793074
    24  O    8.023891   3.673947   4.794839   4.966360   4.114045
    25  H    8.406192   4.389230   5.608780   5.883956   5.070124
    26  O    6.306210   2.986003   4.371051   5.121660   4.831215
                   16         17         18         19         20
    16  C    0.000000
    17  C    1.407329   0.000000
    18  H    3.870731   3.415849   0.000000
    19  H    3.395305   3.895679   2.474548   0.000000
    20  H    2.151543   3.421041   4.307292   2.496754   0.000000
    21  H    1.083372   2.145502   4.954015   4.297160   2.481404
    22  O    2.953015   1.777392   2.287171   3.890711   4.490818
    23  C    2.505427   1.488261   4.681289   5.382785   4.655719
    24  O    2.727191   2.367390   5.761672   6.023998   4.738373
    25  H    3.679645   3.185847   6.525356   6.952425   5.691476
    26  O    3.629930   2.420385   5.058358   6.190692   5.755301
                   21         22         23         24         25
    21  H    0.000000
    22  O    3.875045   0.000000
    23  C    2.683509   2.588138   0.000000
    24  O    2.351159   3.831847   1.366568   0.000000
    25  H    3.269583   4.449386   1.881357   0.971483   0.000000
    26  O    3.870339   2.801220   1.213950   2.248400   2.262700
                   26
    26  O    0.000000
 Symmetry turned off by external request.
 Stoichiometry    C13H10O3
 Framework group  C1[X(C13H10O3)]
 Deg. of freedom    72
 Full point group                 C1      NOp   1
 Rotational constants (GHZ):           1.0098551           0.3365219           0.2770366
 Standard basis: 6-31++G(d,p) (6D, 7F)
   364 basis functions,   592 primitive gaussians,   364 cartesian basis functions
    56 alpha electrons       56 beta electrons
       nuclear repulsion energy      1035.0678574068 Hartrees.
 NAtoms=   26 NActive=   26 NUniq=   26 SFac= 1.00D+00 NAtFMM=   60 NAOKFM=F Big=F
 Integral buffers will be    131072 words long.
 Raffenetti 2 integral format.
 Two-electron integral symmetry is turned off.
 One-electron integrals computed using PRISM.
 NBasis=   364 RedAO= T EigKep=  1.90D-06  NBF=   364
 NBsUse=   362 1.00D-06 EigRej=  9.92D-07 NBFU=   362
 Initial guess from the checkpoint file:  "C:\Users\Administrator\Desktop\dataset_dft\C12H8O1\C12H8O1.chk"
 B after Tr=    -0.009664    0.009116    0.002391
         Rot=    1.000000    0.000359    0.000153   -0.000072 Ang=   0.05 deg.
 ExpMin= 3.60D-02 ExpMax= 5.48D+03 ExpMxC= 8.25D+02 IAcc=3 IRadAn=         5 AccDes= 0.00D+00
 Harris functional with IExCor=  402 and IRadAn=       5 diagonalized for initial guess.
 HarFok:  IExCor=  402 AccDes= 0.00D+00 IRadAn=         5 IDoV= 1 UseB2=F ITyADJ=14
 ICtDFT=  3500011 ScaDFX=  1.000000  1.000000  1.000000  1.000000
 FoFCou: FMM=F IPFlag=           0 FMFlag=      100000 FMFlg1=           0
         NFxFlg=           0 DoJE=T BraDBF=F KetDBF=T FulRan=T
         wScrn=  0.000000 ICntrl=       500 IOpCl=  0 I1Cent=   200000004 NGrid=           0
         NMat0=    1 NMatS0=      1 NMatT0=    0 NMatD0=    1 NMtDS0=    0 NMtDT0=    0
 Symmetry not used in FoFCou.
 Requested convergence on RMS density matrix=1.00D-08 within 128 cycles.
 Requested convergence on MAX density matrix=1.00D-06.
 Requested convergence on             energy=1.00D-06.
 No special actions if energy rises.
 Restarting incremental Fock formation.
 SCF Done:  E(RB3LYP) =  -723.704861548     A.U. after   21 cycles
            NFock= 21  Conv=0.31D-08     -V/T= 1.9916
 Variable Step   Value    
 -------- ---- -----------
    21       2    1.322808
 ---------------------------------------------------------------------------------------------------
                            Z-MATRIX (ANGSTROMS AND DEGREES)
   CD    Cent   Atom    N1       Length/X        N2       Alpha/Y        N3        Beta/Z          J
 ---------------------------------------------------------------------------------------------------
      1      1  C        0  -4.349400         -0.024999         -0.377670
      2      2  C        0  -3.950638          0.418442          0.886364
      3      3  C        0  -2.595040          0.578889          1.184183
      4      4  C        3   1.395189(     3)      2  119.294(    27)      1    0.139(    50)      0
      5      5  C        4   1.397688(     4)      3  121.029(    28)      2    0.589(    51)      0
      6      6  C        5   1.396344(     5)      4  119.092(    29)      3   -0.953(    52)      0
      7      7  H        1   1.085622(     6)      2  120.221(    30)      3  179.935(    53)      0
      8      8  H        2   1.086048(     7)      1  120.147(    31)      6  179.581(    54)      0
      9      9  H        3   1.084988(     8)      2  121.570(    32)      1  179.676(    55)      0
     10     10  H        5   1.084982(     9)      4  119.987(    33)      3  178.469(    56)      0
     11     11  H        6   1.086145(    10)      5  119.350(    34)      4  179.859(    57)      0
     12     12  C        4   2.397317(    11)      3  133.964(    35)      2 -154.304(    58)      0
     13     13  C       12   1.401326(    12)      4   95.830(    36)      3   86.982(    59)      0
     14     14  C       13   1.392793(    13)     12  120.185(    37)      4  169.037(    60)      0
     15     15  C       14   1.398607(    14)     13  120.508(    38)     12    0.685(    61)      0
     16     16  C       15   1.391211(    15)     14  119.315(    39)     13   -0.180(    62)      0
     17     17  C       16   1.407329(    16)     15  121.407(    40)     14   -0.877(    63)      0
     18     18  H       13   1.084040(    17)     12  119.279(    41)      4  -11.724(    64)      0
     19     19  H       14   1.086239(    18)     13  119.264(    42)     12  179.872(    65)      0
     20     20  H       15   1.085095(    19)     14  120.539(    43)     13  179.637(    66)      0
     21     21  H       16   1.083372(    20)     15  120.218(    44)     14  179.990(    67)      0
     22     22  O       12   0.700000(    21)      4   29.653(    45)      3  -64.959(    68)      0
     23     23  C       17   1.488261(    22)     16  119.798(    46)     15 -176.693(    69)      0
     24     24  O       23   1.366568(    23)     17  111.975(    47)     16  -17.963(    70)      0
     25     25  H       24   0.971483(    24)     23  105.918(    48)     17  177.524(    71)      0
     26     26  O       23   1.213950(    25)     17  126.903(    49)     16  160.592(    72)      0
 ---------------------------------------------------------------------------------------------------
                         Z-Matrix orientation:                         
 ---------------------------------------------------------------------
 Center     Atomic      Atomic             Coordinates (Angstroms)
 Number     Number       Type             X           Y           Z
 ---------------------------------------------------------------------
      1          6           0       -4.349400   -0.024999   -0.377670
      2          6           0       -3.950638    0.418442    0.886364
      3          6           0       -2.595040    0.578889    1.184183
      4          6           0       -1.642679    0.294471    0.205068
      5          6           0       -2.025134   -0.135414   -1.068690
      6          6           0       -3.382865   -0.298999   -1.350795
      7          1           0       -5.403476   -0.149654   -0.605616
      8          1           0       -4.694220    0.640241    1.646227
      9          1           0       -2.264557    0.926835    2.157278
     10          1           0       -1.271442   -0.328019   -1.825022
     11          1           0       -3.684882   -0.630663   -2.339984
     12          6           0        0.659553   -0.371188    0.266326
     13          6           0        0.407661   -1.746808    0.355398
     14          6           0        1.446179   -2.660785    0.194153
     15          6           0        2.751314   -2.217854   -0.043618
     16          6           0        3.003461   -0.851913   -0.121684
     17          6           0        1.970128    0.093608    0.015386
     18          1           0       -0.599792   -2.088964    0.563028
     19          1           0        1.234446   -3.723609    0.268246
     20          1           0        3.561787   -2.929330   -0.163477
     21          1           0        4.008932   -0.492661   -0.305155
     22          8           0        0.159323    0.101377    0.394595
     23          6           0        2.267263    1.542770   -0.147586
     24          8           0        3.603049    1.807041   -0.032067
     25          1           0        3.700796    2.760380   -0.191345
     26          8           0        1.470820    2.428208   -0.382860
 ---------------------------------------------------------------------
                    Distance matrix (angstroms):
                    1          2          3          4          5
     1  C    0.000000
     2  C    1.397653   0.000000
     3  C    2.425251   1.397170   0.000000
     4  C    2.787110   2.409607   1.395189   0.000000
     5  C    2.427326   2.799385   2.431143   1.397688   0.000000
     6  C    1.398656   2.417016   2.795974   2.408560   1.396344
     7  H    1.085622   2.158582   3.409027   3.872732   3.409961
     8  H    2.158148   1.086048   2.150304   3.392403   3.885413
     9  H    3.417385   2.171763   1.084988   2.144234   3.404786
    10  H    3.414744   3.884187   3.410236   2.155592   1.084982
    11  H    2.158492   3.403024   3.882077   3.391719   2.148540
    12  C    5.062034   4.718244   3.512475   2.397317   3.007557
    13  C    5.111912   4.895406   3.887411   2.897122   3.247015
    14  C    6.392424   6.251914   5.273244   4.274892   4.474627
    15  C    7.439109   7.261617   6.157334   5.067622   5.310535
    16  C    7.403640   7.140690   5.924162   4.796622   5.166910
    17  C    6.332850   5.993295   4.737335   3.623355   4.146057
    18  H    4.382285   4.197595   3.388848   2.626121   2.917269
    19  H    6.728764   6.665115   5.832272   4.942348   5.028658
    20  H    8.430178   8.291337   7.213204   6.133122   6.311819
    21  H    8.371719   8.099665   6.854108   5.728928   6.092665
    22  O    4.576128   4.151403   2.904821   1.822202   2.639911
    23  C    6.803754   6.402770   5.132705   4.119498   4.699937
    24  O    8.168063   7.734980   6.434588   5.464592   6.043522
    25  H    8.520488   8.074068   6.803568   5.898354   6.476236
    26  O    6.316107   5.919653   4.733584   3.819996   4.389102
                    6          7          8          9         10
     6  C    0.000000
     7  H    2.158811   0.000000
     8  H    3.403522   2.489533   0.000000
     9  H    3.880703   4.318012   2.499314   0.000000
    10  H    2.164218   4.311899   4.970162   4.291812   0.000000
    11  H    1.086145   2.488567   4.303933   4.966738   2.486257
    12  C    4.354473   6.129411   5.620498   3.716313   2.846813
    13  C    4.401742   6.102767   5.778705   4.187587   3.096220
    14  C    5.593261   7.339154   7.121081   5.522177   4.111487
    15  C    6.558877   8.431719   8.152316   6.316009   4.788261
    16  C    6.526989   8.450086   8.037806   6.009129   4.631482
    17  C    5.538513   7.403706   6.882731   4.818145   3.751353
    18  H    3.822589   5.310559   5.038474   3.795803   3.042174
    19  H    5.972337   7.589387   7.489399   6.118668   4.710762
    20  H    7.520409   9.396703   9.174885   7.362214   5.734776
    21  H    7.467900   9.423447   8.990896   6.887322   5.497222
    22  O    3.969104   5.657577   5.041214   3.108638   2.675476
    23  C    6.063314   7.868566   7.245314   5.121442   4.340055
    24  O    7.414678   9.234452   8.545336   6.324302   5.615499
    25  H    7.802716   9.567010   8.851438   6.668085   6.077027
    26  O    5.650913   7.345130   6.732142   4.760196   4.146881
                   11         12         13         14         15
    11  H    0.000000
    12  C    5.072898   0.000000
    13  C    5.025910   1.401326   0.000000
    14  C    6.072152   2.422033   1.392793   0.000000
    15  C    7.015489   2.807437   2.423594   1.398607   0.000000
    16  C    7.050088   2.423954   2.786866   2.407675   1.391211
    17  C    6.168588   1.413016   2.438041   2.809477   2.440613
    18  H    4.480168   2.150520   1.084040   2.156164   3.408012
    19  H    6.369377   3.401357   2.144507   1.086239   2.159964
    20  H    7.907924   3.892529   3.408240   2.162363   1.085095
    21  H    7.959544   3.399954   3.870190   3.393784   2.150882
    22  O    4.774068   0.700000   1.865206   3.053803   3.505606
    23  C    6.705106   2.533632   3.812143   4.296608   3.793074
    24  O    8.023891   3.673947   4.794839   4.966360   4.114045
    25  H    8.406192   4.389230   5.608780   5.883956   5.070124
    26  O    6.306210   2.986003   4.371051   5.121660   4.831215
                   16         17         18         19         20
    16  C    0.000000
    17  C    1.407329   0.000000
    18  H    3.870731   3.415849   0.000000
    19  H    3.395305   3.895679   2.474548   0.000000
    20  H    2.151543   3.421041   4.307292   2.496754   0.000000
    21  H    1.083372   2.145502   4.954015   4.297160   2.481404
    22  O    3.043752   1.850101   2.324267   3.975219   4.590576
    23  C    2.505427   1.488261   4.681289   5.382785   4.655719
    24  O    2.727191   2.367390   5.761672   6.023998   4.738373
    25  H    3.679645   3.185847   6.525356   6.952425   5.691476
    26  O    3.629930   2.420385   5.058358   6.190692   5.755301
                   21         22         23         24         25
    21  H    0.000000
    22  O    3.957527   0.000000
    23  C    2.683509   2.610553   0.000000
    24  O    2.351159   3.866598   1.366568   0.000000
    25  H    3.269583   4.467175   1.881357   0.971483   0.000000
    26  O    3.870339   2.781835   1.213950   2.248400   2.262700
                   26
    26  O    0.000000
 Symmetry turned off by external request.
 Stoichiometry    C13H10O3
 Framework group  C1[X(C13H10O3)]
 Deg. of freedom    72
 Full point group                 C1      NOp   1
 Rotational constants (GHZ):           1.0090579           0.3365332           0.2770609
 Standard basis: 6-31++G(d,p) (6D, 7F)
   364 basis functions,   592 primitive gaussians,   364 cartesian basis functions
    56 alpha electrons       56 beta electrons
       nuclear repulsion energy      1028.2925039714 Hartrees.
 NAtoms=   26 NActive=   26 NUniq=   26 SFac= 1.00D+00 NAtFMM=   60 NAOKFM=F Big=F
 Integral buffers will be    131072 words long.
 Raffenetti 2 integral format.
 Two-electron integral symmetry is turned off.
 One-electron integrals computed using PRISM.
 NBasis=   364 RedAO= T EigKep=  1.88D-06  NBF=   364
 NBsUse=   362 1.00D-06 EigRej=  9.96D-07 NBFU=   362
 Initial guess from the checkpoint file:  "C:\Users\Administrator\Desktop\dataset_dft\C12H8O1\C12H8O1.chk"
 B after Tr=    -0.009662    0.009115    0.002401
         Rot=    1.000000    0.000358    0.000153   -0.000073 Ang=   0.05 deg.
 ExpMin= 3.60D-02 ExpMax= 5.48D+03 ExpMxC= 8.25D+02 IAcc=3 IRadAn=         5 AccDes= 0.00D+00
 Harris functional with IExCor=  402 and IRadAn=       5 diagonalized for initial guess.
 HarFok:  IExCor=  402 AccDes= 0.00D+00 IRadAn=         5 IDoV= 1 UseB2=F ITyADJ=14
 ICtDFT=  3500011 ScaDFX=  1.000000  1.000000  1.000000  1.000000
 FoFCou: FMM=F IPFlag=           0 FMFlag=      100000 FMFlg1=           0
         NFxFlg=           0 DoJE=T BraDBF=F KetDBF=T FulRan=T
         wScrn=  0.000000 ICntrl=       500 IOpCl=  0 I1Cent=   200000004 NGrid=           0
         NMat0=    1 NMatS0=      1 NMatT0=    0 NMatD0=    1 NMtDS0=    0 NMtDT0=    0
 Symmetry not used in FoFCou.
 Requested convergence on RMS density matrix=1.00D-08 within 128 cycles.
 Requested convergence on MAX density matrix=1.00D-06.
 Requested convergence on             energy=1.00D-06.
 No special actions if energy rises.
 SCF Done:  E(RB3LYP) =  -725.290434094     A.U. after   18 cycles
            NFock= 18  Conv=0.35D-08     -V/T= 1.9980
 Variable Step   Value    
 -------- ---- -----------
    21       3    1.511781
 ---------------------------------------------------------------------------------------------------
                            Z-MATRIX (ANGSTROMS AND DEGREES)
   CD    Cent   Atom    N1       Length/X        N2       Alpha/Y        N3        Beta/Z          J
 ---------------------------------------------------------------------------------------------------
      1      1  C        0  -4.349400         -0.024999         -0.377670
      2      2  C        0  -3.950638          0.418442          0.886364
      3      3  C        0  -2.595040          0.578889          1.184183
      4      4  C        3   1.395189(     3)      2  119.294(    27)      1    0.139(    50)      0
      5      5  C        4   1.397688(     4)      3  121.029(    28)      2    0.589(    51)      0
      6      6  C        5   1.396344(     5)      4  119.092(    29)      3   -0.953(    52)      0
      7      7  H        1   1.085622(     6)      2  120.221(    30)      3  179.935(    53)      0
      8      8  H        2   1.086048(     7)      1  120.147(    31)      6  179.581(    54)      0
      9      9  H        3   1.084988(     8)      2  121.570(    32)      1  179.676(    55)      0
     10     10  H        5   1.084982(     9)      4  119.987(    33)      3  178.469(    56)      0
     11     11  H        6   1.086145(    10)      5  119.350(    34)      4  179.859(    57)      0
     12     12  C        4   2.397317(    11)      3  133.964(    35)      2 -154.304(    58)      0
     13     13  C       12   1.401326(    12)      4   95.830(    36)      3   86.982(    59)      0
     14     14  C       13   1.392793(    13)     12  120.185(    37)      4  169.037(    60)      0
     15     15  C       14   1.398607(    14)     13  120.508(    38)     12    0.685(    61)      0
     16     16  C       15   1.391211(    15)     14  119.315(    39)     13   -0.180(    62)      0
     17     17  C       16   1.407329(    16)     15  121.407(    40)     14   -0.877(    63)      0
     18     18  H       13   1.084040(    17)     12  119.279(    41)      4  -11.724(    64)      0
     19     19  H       14   1.086239(    18)     13  119.264(    42)     12  179.872(    65)      0
     20     20  H       15   1.085095(    19)     14  120.539(    43)     13  179.637(    66)      0
     21     21  H       16   1.083372(    20)     15  120.218(    44)     14  179.990(    67)      0
     22     22  O       12   0.800000(    21)      4   29.653(    45)      3  -64.959(    68)      0
     23     23  C       17   1.488261(    22)     16  119.798(    46)     15 -176.693(    69)      0
     24     24  O       23   1.366568(    23)     17  111.975(    47)     16  -17.963(    70)      0
     25     25  H       24   0.971483(    24)     23  105.918(    48)     17  177.524(    71)      0
     26     26  O       23   1.213950(    25)     17  126.903(    49)     16  160.592(    72)      0
 ---------------------------------------------------------------------------------------------------
                         Z-Matrix orientation:                         
 ---------------------------------------------------------------------
 Center     Atomic      Atomic             Coordinates (Angstroms)
 Number     Number       Type             X           Y           Z
 ---------------------------------------------------------------------
      1          6           0       -4.349400   -0.024999   -0.377670
      2          6           0       -3.950638    0.418442    0.886364
      3          6           0       -2.595040    0.578889    1.184183
      4          6           0       -1.642679    0.294471    0.205068
      5          6           0       -2.025134   -0.135414   -1.068690
      6          6           0       -3.382865   -0.298999   -1.350795
      7          1           0       -5.403476   -0.149654   -0.605616
      8          1           0       -4.694220    0.640241    1.646227
      9          1           0       -2.264557    0.926835    2.157278
     10          1           0       -1.271442   -0.328019   -1.825022
     11          1           0       -3.684882   -0.630663   -2.339984
     12          6           0        0.659553   -0.371188    0.266326
     13          6           0        0.407661   -1.746808    0.355398
     14          6           0        1.446179   -2.660785    0.194153
     15          6           0        2.751314   -2.217854   -0.043618
     16          6           0        3.003461   -0.851913   -0.121684
     17          6           0        1.970128    0.093608    0.015386
     18          1           0       -0.599792   -2.088964    0.563028
     19          1           0        1.234446   -3.723609    0.268246
     20          1           0        3.561787   -2.929330   -0.163477
     21          1           0        4.008932   -0.492661   -0.305155
     22          8           0        0.087862    0.168886    0.412920
     23          6           0        2.267263    1.542770   -0.147586
     24          8           0        3.603049    1.807041   -0.032067
     25          1           0        3.700796    2.760380   -0.191345
     26          8           0        1.470820    2.428208   -0.382860
 ---------------------------------------------------------------------
                    Distance matrix (angstroms):
                    1          2          3          4          5
     1  C    0.000000
     2  C    1.397653   0.000000
     3  C    2.425251   1.397170   0.000000
     4  C    2.787110   2.409607   1.395189   0.000000
     5  C    2.427326   2.799385   2.431143   1.397688   0.000000
     6  C    1.398656   2.417016   2.795974   2.408560   1.396344
     7  H    1.085622   2.158582   3.409027   3.872732   3.409961
     8  H    2.158148   1.086048   2.150304   3.392403   3.885413
     9  H    3.417385   2.171763   1.084988   2.144234   3.404786
    10  H    3.414744   3.884187   3.410236   2.155592   1.084982
    11  H    2.158492   3.403024   3.882077   3.391719   2.148540
    12  C    5.062034   4.718244   3.512475   2.397317   3.007557
    13  C    5.111912   4.895406   3.887411   2.897122   3.247015
    14  C    6.392424   6.251914   5.273244   4.274892   4.474627
    15  C    7.439109   7.261617   6.157334   5.067622   5.310535
    16  C    7.403640   7.140690   5.924162   4.796622   5.166910
    17  C    6.332850   5.993295   4.737335   3.623355   4.146057
    18  H    4.382285   4.197595   3.388848   2.626121   2.917269
    19  H    6.728764   6.665115   5.832272   4.942348   5.028658
    20  H    8.430178   8.291337   7.213204   6.133122   6.311819
    21  H    8.371719   8.099665   6.854108   5.728928   6.092665
    22  O    4.511310   4.073808   2.821509   1.747497   2.598561
    23  C    6.803754   6.402770   5.132705   4.119498   4.699937
    24  O    8.168063   7.734980   6.434588   5.464592   6.043522
    25  H    8.520488   8.074068   6.803568   5.898354   6.476236
    26  O    6.316107   5.919653   4.733584   3.819996   4.389102
                    6          7          8          9         10
     6  C    0.000000
     7  H    2.158811   0.000000
     8  H    3.403522   2.489533   0.000000
     9  H    3.880703   4.318012   2.499314   0.000000
    10  H    2.164218   4.311899   4.970162   4.291812   0.000000
    11  H    1.086145   2.488567   4.303933   4.966738   2.486257
    12  C    4.354473   6.129411   5.620498   3.716313   2.846813
    13  C    4.401742   6.102767   5.778705   4.187587   3.096220
    14  C    5.593261   7.339154   7.121081   5.522177   4.111487
    15  C    6.558877   8.431719   8.152316   6.316009   4.788261
    16  C    6.526989   8.450086   8.037806   6.009129   4.631482
    17  C    5.538513   7.403706   6.882731   4.818145   3.751353
    18  H    3.822589   5.310559   5.038474   3.795803   3.042174
    19  H    5.972337   7.589387   7.489399   6.118668   4.710762
    20  H    7.520409   9.396703   9.174885   7.362214   5.734776
    21  H    7.467900   9.423447   8.990896   6.887322   5.497222
    22  O    3.921167   5.594075   4.961001   3.025087   2.665146
    23  C    6.063314   7.868566   7.245314   5.121442   4.340055
    24  O    7.414678   9.234452   8.545336   6.324302   5.615499
    25  H    7.802716   9.567010   8.851438   6.668085   6.077027
    26  O    5.650913   7.345130   6.732142   4.760196   4.146881
                   11         12         13         14         15
    11  H    0.000000
    12  C    5.072898   0.000000
    13  C    5.025910   1.401326   0.000000
    14  C    6.072152   2.422033   1.392793   0.000000
    15  C    7.015489   2.807437   2.423594   1.398607   0.000000
    16  C    7.050088   2.423954   2.786866   2.407675   1.391211
    17  C    6.168588   1.413016   2.438041   2.809477   2.440613
    18  H    4.480168   2.150520   1.084040   2.156164   3.408012
    19  H    6.369377   3.401357   2.144507   1.086239   2.159964
    20  H    7.907924   3.892529   3.408240   2.162363   1.085095
    21  H    7.959544   3.399954   3.870190   3.393784   2.150882
    22  O    4.738286   0.800000   1.943055   3.146414   3.605403
    23  C    6.705106   2.533632   3.812143   4.296608   3.793074
    24  O    8.023891   3.673947   4.794839   4.966360   4.114045
    25  H    8.406192   4.389230   5.608780   5.883956   5.070124
    26  O    6.306210   2.986003   4.371051   5.121660   4.831215
                   16         17         18         19         20
    16  C    0.000000
    17  C    1.407329   0.000000
    18  H    3.870731   3.415849   0.000000
    19  H    3.395305   3.895679   2.474548   0.000000
    20  H    2.151543   3.421041   4.307292   2.496754   0.000000
    21  H    1.083372   2.145502   4.954015   4.297160   2.481404
    22  O    3.135052   1.925260   2.365013   4.060431   4.690344
    23  C    2.505427   1.488261   4.681289   5.382785   4.655719
    24  O    2.727191   2.367390   5.761672   6.023998   4.738373
    25  H    3.679645   3.185847   6.525356   6.952425   5.691476
    26  O    3.629930   2.420385   5.058358   6.190692   5.755301
                   21         22         23         24         25
    21  H    0.000000
    22  O    4.040800   0.000000
    23  C    2.683509   2.636572   0.000000
    24  O    2.351159   3.903601   1.366568   0.000000
    25  H    3.269583   4.487123   1.881357   0.971483   0.000000
    26  O    3.870339   2.765931   1.213950   2.248400   2.262700
                   26
    26  O    0.000000
 Symmetry turned off by external request.
 Stoichiometry    C13H10O3
 Framework group  C1[X(C13H10O3)]
 Deg. of freedom    72
 Full point group                 C1      NOp   1
 Rotational constants (GHZ):           1.0079648           0.3365089           0.2770419
 Standard basis: 6-31++G(d,p) (6D, 7F)
   364 basis functions,   592 primitive gaussians,   364 cartesian basis functions
    56 alpha electrons       56 beta electrons
       nuclear repulsion energy      1023.1323109395 Hartrees.
 NAtoms=   26 NActive=   26 NUniq=   26 SFac= 1.00D+00 NAtFMM=   60 NAOKFM=F Big=F
 Integral buffers will be    131072 words long.
 Raffenetti 2 integral format.
 Two-electron integral symmetry is turned off.
 One-electron integrals computed using PRISM.
 NBasis=   364 RedAO= T EigKep=  1.86D-06  NBF=   364
 NBsUse=   362 1.00D-06 EigRej=  1.00D-06 NBFU=   362
 Initial guess from the checkpoint file:  "C:\Users\Administrator\Desktop\dataset_dft\C12H8O1\C12H8O1.chk"
 B after Tr=    -0.009660    0.009115    0.002410
         Rot=    1.000000    0.000358    0.000153   -0.000073 Ang=   0.05 deg.
 ExpMin= 3.60D-02 ExpMax= 5.48D+03 ExpMxC= 8.25D+02 IAcc=3 IRadAn=         5 AccDes= 0.00D+00
 Harris functional with IExCor=  402 and IRadAn=       5 diagonalized for initial guess.
 HarFok:  IExCor=  402 AccDes= 0.00D+00 IRadAn=         5 IDoV= 1 UseB2=F ITyADJ=14
 ICtDFT=  3500011 ScaDFX=  1.000000  1.000000  1.000000  1.000000
 FoFCou: FMM=F IPFlag=           0 FMFlag=      100000 FMFlg1=           0
         NFxFlg=           0 DoJE=T BraDBF=F KetDBF=T FulRan=T
         wScrn=  0.000000 ICntrl=       500 IOpCl=  0 I1Cent=   200000004 NGrid=           0
         NMat0=    1 NMatS0=      1 NMatT0=    0 NMatD0=    1 NMtDS0=    0 NMtDT0=    0
 Symmetry not used in FoFCou.
 Requested convergence on RMS density matrix=1.00D-08 within 128 cycles.
 Requested convergence on MAX density matrix=1.00D-06.
 Requested convergence on             energy=1.00D-06.
 No special actions if energy rises.
 SCF Done:  E(RB3LYP) =  -726.155953323     A.U. after   16 cycles
            NFock= 16  Conv=0.78D-08     -V/T= 2.0023
 Variable Step   Value    
 -------- ---- -----------
    21       4    1.700754
 ---------------------------------------------------------------------------------------------------
                            Z-MATRIX (ANGSTROMS AND DEGREES)
   CD    Cent   Atom    N1       Length/X        N2       Alpha/Y        N3        Beta/Z          J
 ---------------------------------------------------------------------------------------------------
      1      1  C        0  -4.349400         -0.024999         -0.377670
      2      2  C        0  -3.950638          0.418442          0.886364
      3      3  C        0  -2.595040          0.578889          1.184183
      4      4  C        3   1.395189(     3)      2  119.294(    27)      1    0.139(    50)      0
      5      5  C        4   1.397688(     4)      3  121.029(    28)      2    0.589(    51)      0
      6      6  C        5   1.396344(     5)      4  119.092(    29)      3   -0.953(    52)      0
      7      7  H        1   1.085622(     6)      2  120.221(    30)      3  179.935(    53)      0
      8      8  H        2   1.086048(     7)      1  120.147(    31)      6  179.581(    54)      0
      9      9  H        3   1.084988(     8)      2  121.570(    32)      1  179.676(    55)      0
[...]
    21  H    7.959544   3.399954   3.870190   3.393784   2.150882
    22  O    4.441337   2.400000   3.352456   4.669826   5.203209
    23  C    6.705106   2.533632   3.812143   4.296608   3.793074
    24  O    8.023891   3.673947   4.794839   4.966360   4.114045
    25  H    8.406192   4.389230   5.608780   5.883956   5.070124
    26  O    6.306210   2.986003   4.371051   5.121660   4.831215
                   16         17         18         19         20
    16  C    0.000000
    17  C    1.407329   0.000000
    18  H    3.870731   3.415849   0.000000
    19  H    3.395305   3.895679   2.474548   0.000000
    20  H    2.151543   3.421041   4.307292   2.496754   0.000000
    21  H    1.083372   2.145502   4.954015   4.297160   2.481404
    22  O    4.644840   3.311593   3.372001   5.492071   6.287640
    23  C    2.505427   1.488261   4.681289   5.382785   4.655719
    24  O    2.727191   2.367390   5.761672   6.023998   4.738373
    25  H    3.679645   3.185847   6.525356   6.952425   5.691476
    26  O    3.629930   2.420385   5.058358   6.190692   5.755301
                   21         22         23         24         25
    21  H    0.000000
    22  O    5.450213   0.000000
    23  C    2.683509   3.443248   0.000000
    24  O    2.351159   4.749583   1.366568   0.000000
    25  H    3.269583   5.070713   1.881357   0.971483   0.000000
    26  O    3.870339   2.993108   1.213950   2.248400   2.262700
                   26
    26  O    0.000000
 Symmetry turned off by external request.
 Stoichiometry    C13H10O3
 Framework group  C1[X(C13H10O3)]
 Deg. of freedom    72
 Full point group                 C1      NOp   1
 Rotational constants (GHZ):           0.9541856           0.3313500           0.2709089
 Standard basis: 6-31++G(d,p) (6D, 7F)
   364 basis functions,   592 primitive gaussians,   364 cartesian basis functions
    56 alpha electrons       56 beta electrons
       nuclear repulsion energy       995.0207912001 Hartrees.
 NAtoms=   26 NActive=   26 NUniq=   26 SFac= 1.00D+00 NAtFMM=   60 NAOKFM=F Big=F
 Integral buffers will be    131072 words long.
 Raffenetti 2 integral format.
 Two-electron integral symmetry is turned off.
 One-electron integrals computed using PRISM.
 NBasis=   364 RedAO= T EigKep=  1.00D-06  NBF=   364
 NBsUse=   363 1.00D-06 EigRej=  5.01D-07 NBFU=   363
 Initial guess from the checkpoint file:  "C:\Users\Administrator\Desktop\dataset_dft\C12H8O1\C12H8O1.chk"
 B after Tr=    -0.009627    0.009110    0.002557
         Rot=    1.000000    0.000337    0.000147   -0.000072 Ang=   0.04 deg.
 ExpMin= 3.60D-02 ExpMax= 5.48D+03 ExpMxC= 8.25D+02 IAcc=3 IRadAn=         5 AccDes= 0.00D+00
 Harris functional with IExCor=  402 and IRadAn=       5 diagonalized for initial guess.
 HarFok:  IExCor=  402 AccDes= 0.00D+00 IRadAn=         5 IDoV= 1 UseB2=F ITyADJ=14
 ICtDFT=  3500011 ScaDFX=  1.000000  1.000000  1.000000  1.000000
 FoFCou: FMM=F IPFlag=           0 FMFlag=      100000 FMFlg1=           0
         NFxFlg=           0 DoJE=T BraDBF=F KetDBF=T FulRan=T
         wScrn=  0.000000 ICntrl=       500 IOpCl=  0 I1Cent=   200000004 NGrid=           0
         NMat0=    1 NMatS0=      1 NMatT0=    0 NMatD0=    1 NMtDS0=    0 NMtDT0=    0
 Symmetry not used in FoFCou.
 Requested convergence on RMS density matrix=1.00D-08 within 128 cycles.
 Requested convergence on MAX density matrix=1.00D-06.
 Requested convergence on             energy=1.00D-06.
 No special actions if energy rises.
 SCF Done:  E(RB3LYP) =  -726.863721177     A.U. after   17 cycles
            NFock= 17  Conv=0.63D-08     -V/T= 2.0086
 Variable Step   Value    
 -------- ---- -----------
    21      20    4.724315
 ---------------------------------------------------------------------------------------------------
                            Z-MATRIX (ANGSTROMS AND DEGREES)
   CD    Cent   Atom    N1       Length/X        N2       Alpha/Y        N3        Beta/Z          J
 ---------------------------------------------------------------------------------------------------
      1      1  C        0  -4.349400         -0.024999         -0.377670
      2      2  C        0  -3.950638          0.418442          0.886364
      3      3  C        0  -2.595040          0.578889          1.184183
      4      4  C        3   1.395189(     3)      2  119.294(    27)      1    0.139(    50)      0
      5      5  C        4   1.397688(     4)      3  121.029(    28)      2    0.589(    51)      0
      6      6  C        5   1.396344(     5)      4  119.092(    29)      3   -0.953(    52)      0
      7      7  H        1   1.085622(     6)      2  120.221(    30)      3  179.935(    53)      0
      8      8  H        2   1.086048(     7)      1  120.147(    31)      6  179.581(    54)      0
      9      9  H        3   1.084988(     8)      2  121.570(    32)      1  179.676(    55)      0
     10     10  H        5   1.084982(     9)      4  119.987(    33)      3  178.469(    56)      0
     11     11  H        6   1.086145(    10)      5  119.350(    34)      4  179.859(    57)      0
     12     12  C        4   2.397317(    11)      3  133.964(    35)      2 -154.304(    58)      0
     13     13  C       12   1.401326(    12)      4   95.830(    36)      3   86.982(    59)      0
     14     14  C       13   1.392793(    13)     12  120.185(    37)      4  169.037(    60)      0
     15     15  C       14   1.398607(    14)     13  120.508(    38)     12    0.685(    61)      0
     16     16  C       15   1.391211(    15)     14  119.315(    39)     13   -0.180(    62)      0
     17     17  C       16   1.407329(    16)     15  121.407(    40)     14   -0.877(    63)      0
     18     18  H       13   1.084040(    17)     12  119.279(    41)      4  -11.724(    64)      0
     19     19  H       14   1.086239(    18)     13  119.264(    42)     12  179.872(    65)      0
     20     20  H       15   1.085095(    19)     14  120.539(    43)     13  179.637(    66)      0
     21     21  H       16   1.083372(    20)     15  120.218(    44)     14  179.990(    67)      0
     22     22  O       12   2.500000(    21)      4   29.653(    45)      3  -64.959(    68)      0
     23     23  C       17   1.488261(    22)     16  119.798(    46)     15 -176.693(    69)      0
     24     24  O       23   1.366568(    23)     17  111.975(    47)     16  -17.963(    70)      0
     25     25  H       24   0.971483(    24)     23  105.918(    48)     17  177.524(    71)      0
     26     26  O       23   1.213950(    25)     17  126.903(    49)     16  160.592(    72)      0
 ---------------------------------------------------------------------------------------------------
                         Z-Matrix orientation:                         
 ---------------------------------------------------------------------
 Center     Atomic      Atomic             Coordinates (Angstroms)
 Number     Number       Type             X           Y           Z
 ---------------------------------------------------------------------
      1          6           0       -4.349400   -0.024999   -0.377670
      2          6           0       -3.950638    0.418442    0.886364
      3          6           0       -2.595040    0.578889    1.184183
      4          6           0       -1.642679    0.294471    0.205068
      5          6           0       -2.025134   -0.135414   -1.068690
      6          6           0       -3.382865   -0.298999   -1.350795
      7          1           0       -5.403476   -0.149654   -0.605616
      8          1           0       -4.694220    0.640241    1.646227
      9          1           0       -2.264557    0.926835    2.157278
     10          1           0       -1.271442   -0.328019   -1.825022
     11          1           0       -3.684882   -0.630663   -2.339984
     12          6           0        0.659553   -0.371188    0.266326
     13          6           0        0.407661   -1.746808    0.355398
     14          6           0        1.446179   -2.660785    0.194153
     15          6           0        2.751314   -2.217854   -0.043618
     16          6           0        3.003461   -0.851913   -0.121684
     17          6           0        1.970128    0.093608    0.015386
     18          1           0       -0.599792   -2.088964    0.563028
     19          1           0        1.234446   -3.723609    0.268246
     20          1           0        3.561787   -2.929330   -0.163477
     21          1           0        4.008932   -0.492661   -0.305155
     22          8           0       -1.126981    1.316543    0.724431
     23          6           0        2.267263    1.542770   -0.147586
     24          8           0        3.603049    1.807041   -0.032067
     25          1           0        3.700796    2.760380   -0.191345
     26          8           0        1.470820    2.428208   -0.382860
 ---------------------------------------------------------------------
                    Distance matrix (angstroms):
                    1          2          3          4          5
     1  C    0.000000
     2  C    1.397653   0.000000
     3  C    2.425251   1.397170   0.000000
     4  C    2.787110   2.409607   1.395189   0.000000
     5  C    2.427326   2.799385   2.431143   1.397688   0.000000
     6  C    1.398656   2.417016   2.795974   2.408560   1.396344
     7  H    1.085622   2.158582   3.409027   3.872732   3.409961
     8  H    2.158148   1.086048   2.150304   3.392403   3.885413
     9  H    3.417385   2.171763   1.084988   2.144234   3.404786
    10  H    3.414744   3.884187   3.410236   2.155592   1.084982
    11  H    2.158492   3.403024   3.882077   3.391719   2.148540
    12  C    5.062034   4.718244   3.512475   2.397317   3.007557
    13  C    5.111912   4.895406   3.887411   2.897122   3.247015
    14  C    6.392424   6.251914   5.273244   4.274892   4.474627
    15  C    7.439109   7.261617   6.157334   5.067622   5.310535
    16  C    7.403640   7.140690   5.924162   4.796622   5.166910
    17  C    6.332850   5.993295   4.737335   3.623355   4.146057
    18  H    4.382285   4.197595   3.388848   2.626121   2.917269
    19  H    6.728764   6.665115   5.832272   4.942348   5.028658
    20  H    8.430178   8.291337   7.213204   6.133122   6.311819
    21  H    8.371719   8.099665   6.854108   5.728928   6.092665
    22  O    3.660375   2.967465   1.706078   1.257105   2.475912
    23  C    6.803754   6.402770   5.132705   4.119498   4.699937
    24  O    8.168063   7.734980   6.434588   5.464592   6.043522
    25  H    8.520488   8.074068   6.803568   5.898354   6.476236
    26  O    6.316107   5.919653   4.733584   3.819996   4.389102
                    6          7          8          9         10
     6  C    0.000000
     7  H    2.158811   0.000000
     8  H    3.403522   2.489533   0.000000
     9  H    3.880703   4.318012   2.499314   0.000000
    10  H    2.164218   4.311899   4.970162   4.291812   0.000000
    11  H    1.086145   2.488567   4.303933   4.966738   2.486257
    12  C    4.354473   6.129411   5.620498   3.716313   2.846813
    13  C    4.401742   6.102767   5.778705   4.187587   3.096220
    14  C    5.593261   7.339154   7.121081   5.522177   4.111487
    15  C    6.558877   8.431719   8.152316   6.316009   4.788261
    16  C    6.526989   8.450086   8.037806   6.009129   4.631482
    17  C    5.538513   7.403706   6.882731   4.818145   3.751353
    18  H    3.822589   5.310559   5.038474   3.795803   3.042174
    19  H    5.972337   7.589387   7.489399   6.118668   4.710762
    20  H    7.520409   9.396703   9.174885   7.362214   5.734776
    21  H    7.467900   9.423447   8.990896   6.887322   5.497222
    22  O    3.464903   4.712448   3.745969   1.870562   3.037295
    23  C    6.063314   7.868566   7.245314   5.121442   4.340055
    24  O    7.414678   9.234452   8.545336   6.324302   5.615499
    25  H    7.802716   9.567010   8.851438   6.668085   6.077027
    26  O    5.650913   7.345130   6.732142   4.760196   4.146881
                   11         12         13         14         15
    11  H    0.000000
    12  C    5.072898   0.000000
    13  C    5.025910   1.401326   0.000000
    14  C    6.072152   2.422033   1.392793   0.000000
    15  C    7.015489   2.807437   2.423594   1.398607   0.000000
    16  C    7.050088   2.423954   2.786866   2.407675   1.391211
    17  C    6.168588   1.413016   2.438041   2.809477   2.440613
    18  H    4.480168   2.150520   1.084040   2.156164   3.408012
    19  H    6.369377   3.401357   2.144507   1.086239   2.159964
    20  H    7.907924   3.892529   3.408240   2.162363   1.085095
    21  H    7.959544   3.399954   3.870190   3.393784   2.150882
    22  O    4.441296   2.500000   3.446075   4.766706   5.303115
    23  C    6.705106   2.533632   3.812143   4.296608   3.793074
    24  O    8.023891   3.673947   4.794839   4.966360   4.114045
    25  H    8.406192   4.389230   5.608780   5.883956   5.070124
    26  O    6.306210   2.986003   4.371051   5.121660   4.831215
                   16         17         18         19         20
    16  C    0.000000
    17  C    1.407329   0.000000
    18  H    3.870731   3.415849   0.000000
    19  H    3.395305   3.895679   2.474548   0.000000
    20  H    2.151543   3.421041   4.307292   2.496754   0.000000
    21  H    1.083372   2.145502   4.954015   4.297160   2.481404
    22  O    4.741167   3.404468   3.449849   5.584584   6.387516
    23  C    2.505427   1.488261   4.681289   5.382785   4.655719
    24  O    2.727191   2.367390   5.761672   6.023998   4.738373
    25  H    3.679645   3.185847   6.525356   6.952425   5.691476
    26  O    3.629930   2.420385   5.058358   6.190692   5.755301
                   21         22         23         24         25
    21  H    0.000000
    22  O    5.541739   0.000000
    23  C    2.683509   3.511764   0.000000
    24  O    2.351159   4.815191   1.366568   0.000000
    25  H    3.269583   5.121596   1.881357   0.971483   0.000000
    26  O    3.870339   3.034874   1.213950   2.248400   2.262700
                   26
    26  O    0.000000
 Symmetry turned off by external request.
 Stoichiometry    C13H10O3
 Framework group  C1[X(C13H10O3)]
 Deg. of freedom    72
 Full point group                 C1      NOp   1
 Rotational constants (GHZ):           0.9489453           0.3307324           0.2701750
 Standard basis: 6-31++G(d,p) (6D, 7F)
   364 basis functions,   592 primitive gaussians,   364 cartesian basis functions
    56 alpha electrons       56 beta electrons
       nuclear repulsion energy       993.4213091319 Hartrees.
 NAtoms=   26 NActive=   26 NUniq=   26 SFac= 1.00D+00 NAtFMM=   60 NAOKFM=F Big=F
 Integral buffers will be    131072 words long.
 Raffenetti 2 integral format.
 Two-electron integral symmetry is turned off.
 One-electron integrals computed using PRISM.
 NBasis=   364 RedAO= T EigKep=  1.80D-06  NBF=   364
 NBsUse=   362 1.00D-06 EigRej=  9.99D-07 NBFU=   362
 Initial guess from the checkpoint file:  "C:\Users\Administrator\Desktop\dataset_dft\C12H8O1\C12H8O1.chk"
 B after Tr=    -0.009625    0.009110    0.002566
         Rot=    1.000000    0.000335    0.000146   -0.000072 Ang=   0.04 deg.
 ExpMin= 3.60D-02 ExpMax= 5.48D+03 ExpMxC= 8.25D+02 IAcc=3 IRadAn=         5 AccDes= 0.00D+00
 Harris functional with IExCor=  402 and IRadAn=       5 diagonalized for initial guess.
 HarFok:  IExCor=  402 AccDes= 0.00D+00 IRadAn=         5 IDoV= 1 UseB2=F ITyADJ=14
 ICtDFT=  3500011 ScaDFX=  1.000000  1.000000  1.000000  1.000000
 FoFCou: FMM=F IPFlag=           0 FMFlag=      100000 FMFlg1=           0
         NFxFlg=           0 DoJE=T BraDBF=F KetDBF=T FulRan=T
         wScrn=  0.000000 ICntrl=       500 IOpCl=  0 I1Cent=   200000004 NGrid=           0
         NMat0=    1 NMatS0=      1 NMatT0=    0 NMatD0=    1 NMtDS0=    0 NMtDT0=    0
 Symmetry not used in FoFCou.
 Requested convergence on RMS density matrix=1.00D-08 within 128 cycles.
 Requested convergence on MAX density matrix=1.00D-06.
 Requested convergence on             energy=1.00D-06.
 No special actions if energy rises.
 SCF Done:  E(RB3LYP) =  -726.846717701     A.U. after   17 cycles
            NFock= 17  Conv=0.93D-08     -V/T= 2.0087
 Scan completed.
 
 Summary of the potential surface scan:
   N      B21         SCF    
 ----  ---------  -----------
    1     0.5000   -720.79806
    2     0.6000   -723.70486
    3     0.7000   -725.29043
    4     0.8000   -726.15595
    5     0.9000   -726.62938
    6     1.0000   -726.88761
    7     1.1000   -727.02550
    8     1.2000   -727.09444
    9     1.3000   -727.12273
   10     1.4000   -727.12621
   11     1.5000   -727.11397
   12     1.6000   -727.09154
   13     1.7000   -727.06265
   14     1.8000   -727.03021
   15     1.9000   -726.99669
   16     2.0000   -726.96413
   17     2.1000   -726.93401
   18     2.2000   -726.90715
   19     2.3000   -726.88379
   20     2.4000   -726.86372
   21     2.5000   -726.84672
 ----  ---------  -----------
  
 1|1|UNPC-BF-202112021916|Scan|RB3LYP|6-31++G(d,p)|C13H10O3|ADMINISTRAT
 OR|22-Mar-2023|1||# scan b3lyp/6-31++g(d,p) nosymm||Title Card Require
 d||0,1|C,0,-4.3494,-0.024999,-0.37767|C,0,X1,0.418442,0.886364|C,0,X2,
 Y1,1.184183|C,3,B3,2,A2,1,D1,0|C,4,B4,3,A3,2,D2,0|C,5,B5,4,A4,3,D3,0|H
 ,1,B6,2,A5,3,D4,0|H,2,B7,1,A6,6,D5,0|H,3,B8,2,A7,1,D6,0|H,5,B9,4,A8,3,
 D7,0|H,6,B10,5,A9,4,D8,0|C,4,B11,3,A10,2,D9,0|C,12,B12,4,A11,3,D10,0|C
 ,13,B13,12,A12,4,D11,0|C,14,B14,13,A13,12,D12,0|C,15,B15,14,A14,13,D13
 ,0|C,16,B16,15,A15,14,D14,0|H,13,B17,12,A16,4,D15,0|H,14,B18,13,A17,12
 ,D16,0|H,15,B19,14,A18,13,D17,0|H,16,B20,15,A19,14,D18,0|O,12,B21,4,A2
 0,3,D19,0|C,17,B22,16,A21,15,D20,0|O,23,B23,17,A22,16,D21,0|H,24,B24,2
 3,A23,17,D22,0|O,23,B25,17,A24,16,D23,0||X1=-3.950638|X2=-2.59504|B3=1
 .39518861|B4=1.39768823|B5=1.39634407|B6=1.08562169|B7=1.08604823|B8=1
 .08498816|B9=1.08498222|B10=1.08614463|B11=2.39731655|B12=1.40132572|B
 13=1.39279343|B14=1.39860655|B15=1.3912107|B16=1.40732911|B17=1.084039
 89|B18=1.08623915|B19=1.08509482|B20=1.0833723|B21=0.5,s,20,0.1|B22=1.
 48826059|B23=1.36656798|B24=0.97148299|B25=1.21395048|Y1=0.578889|A2=1
 19.29408152|A3=121.02890728|A4=119.09223971|A5=120.22144685|A6=120.147
 25816|A7=121.5697359|A8=119.9867044|A9=119.35006314|A10=133.96364308|A
 11=95.82992737|A12=120.18490037|A13=120.50844281|A14=119.31507025|A15=
 121.40662881|A16=119.27935255|A17=119.26400615|A18=120.53901167|A19=12
 0.2182618|A20=29.65278929|A21=119.79800948|A22=111.97495176|A23=105.91
 802692|A24=126.90281909|D1=0.13908464|D2=0.58861716|D3=-0.95313715|D4=
 179.93531931|D5=179.58058445|D6=179.67558521|D7=178.46875218|D8=179.85
 903842|D9=-154.3037083|D10=86.98167841|D11=169.03741819|D12=0.68504462
 |D13=-0.17994637|D14=-0.87658838|D15=-11.723603|D16=179.87243757|D17=1
 79.63661184|D18=179.990412|D19=-64.95924083|D20=-176.69272577|D21=-17.
 96286859|D22=177.52365674|D23=160.59173259||Version=EM64W-G16RevA.03|H
 F=-720.7980637,-723.7048615,-725.2904341,-726.1559533,-726.6293831,-72
 6.8876065,-727.0255018,-727.0944444,-727.1227306,-727.1262094,-727.113
 9742,-727.091544,-727.0626537,-727.0302123,-726.9966904,-726.9641301,-
 726.934009,-726.9071546,-726.8837895,-726.8637212,-726.8467177|RMSD=8.
 046e-009,3.111e-009,3.491e-009,7.822e-009,6.849e-009,5.104e-009,9.944e
 -009,7.512e-009,5.456e-009,3.341e-009,4.319e-009,4.453e-009,7.272e-009
 ,2.560e-009,5.637e-009,7.976e-009,9.994e-009,5.690e-009,6.886e-009,6.2
 68e-009,9.252e-009|PG=C01 [X(C13H10O3)]||@


 KNOWLEDGE IS CHIMERA - FOR BEYOND IT LIES OTHER KNOWLEDGE,
 AND THE INCOMPLETENESS OF WHAT IS KNOWN RENDERS THE KNOWING FALSE.
     -- THE THOMAS COVENANT CHRONICLES
 Job cpu time:       0 days  0 hours 34 minutes  4.0 seconds.
 Elapsed time:       0 days  0 hours 33 minutes 38.7 seconds.
 File lengths (MBytes):  RWF=     94 Int=      0 D2E=      0 Chk=     15 Scr=      1
 Normal termination of Gaussian 16 at Wed Mar 22 21:02:29 2023.
